# vtk DataFile Version 3.0
GASDIN data file
ASCII
DATASET UNSTRUCTURED_GRID
POINTS 33802 double
0.000000 0.000000 0.000000
0.000600 -0.003200 0.000000
0.000600 0.003200 0.000000
0.002400 -0.006600 0.000000
0.002400 0.006400 0.000000
0.005400 -0.009600 0.000000
0.005400 0.009500 0.000000
0.009600 -0.012700 0.000000
0.009600 0.012700 0.000000
0.015000 -0.015800 0.000000
0.015000 0.015800 0.000000
0.021500 -0.018800 0.000000
0.021500 0.018800 0.000000
0.029200 -0.021800 0.000000
0.029200 0.021600 0.000000
0.038100 -0.024700 0.000000
0.038100 0.024500 0.000000
0.048000 -0.027600 0.000000
0.048000 0.027300 0.000000
0.059000 -0.030400 0.000000
0.059000 0.030000 0.000000
0.071100 -0.033200 0.000000
0.071100 0.032800 0.000000
0.084300 -0.035800 0.000000
0.084300 0.035500 0.000000
0.098400 -0.038400 0.000000
0.098400 0.038200 0.000000
0.113500 -0.040900 0.000000
0.113500 0.040700 0.000000
0.129500 -0.043300 0.000000
0.129500 0.043200 0.000000
0.146500 -0.045600 0.000000
0.146500 0.045600 0.000000
0.164200 -0.047800 0.000000
0.164200 0.047800 0.000000
0.182800 -0.049800 0.000000
0.182800 0.049900 0.000000
0.202200 -0.051700 0.000000
0.202200 0.051900 0.000000
0.222200 -0.053400 0.000000
0.222200 0.053800 0.000000
0.243000 -0.055000 0.000000
0.243000 0.055600 0.000000
0.264300 -0.056400 0.000000
0.264300 0.057100 0.000000
0.286200 -0.057500 0.000000
0.286200 0.058500 0.000000
0.308700 -0.058400 0.000000
0.308700 0.059700 0.000000
0.331600 -0.059000 0.000000
0.331600 0.060700 0.000000
0.354900 -0.059200 0.000000
0.354900 0.061600 0.000000
0.378500 -0.058900 0.000000
0.378500 0.062200 0.000000
0.402500 -0.058200 0.000000
0.402500 0.062600 0.000000
0.426600 -0.056900 0.000000
0.426600 0.062900 0.000000
0.451000 -0.055200 0.000000
0.451000 0.062900 0.000000
0.475500 -0.053000 0.000000
0.475500 0.062600 0.000000
0.500000 -0.050400 0.000000
0.500000 0.062100 0.000000
0.524500 -0.047600 0.000000
0.524500 0.061400 0.000000
0.549000 -0.044500 0.000000
0.549000 0.060300 0.000000
0.573400 -0.041300 0.000000
0.573400 0.059000 0.000000
0.597500 -0.037900 0.000000
0.597500 0.057300 0.000000
0.621500 -0.034600 0.000000
0.621500 0.055500 0.000000
0.645100 -0.031100 0.000000
0.645100 0.053400 0.000000
0.668500 -0.027700 0.000000
0.668500 0.051100 0.000000
0.691300 -0.024400 0.000000
0.691300 0.048600 0.000000
0.713800 -0.021200 0.000000
0.713800 0.046100 0.000000
0.735700 -0.018100 0.000000
0.735700 0.043400 0.000000
0.757100 -0.015200 0.000000
0.757100 0.040800 0.000000
0.777800 -0.012600 0.000000
0.777800 0.038000 0.000000
0.797900 -0.010100 0.000000
0.797900 0.035100 0.000000
0.817200 -0.007900 0.000000
0.817200 0.032300 0.000000
0.835800 -0.005900 0.000000
0.835800 0.029500 0.000000
0.853600 -0.004200 0.000000
0.853600 0.026700 0.000000
0.870500 -0.002700 0.000000
0.870500 0.024000 0.000000
0.886500 -0.001500 0.000000
0.886500 0.021300 0.000000
0.901600 -0.000500 0.000000
0.901600 0.018700 0.000000
0.915700 0.000300 0.000000
0.915700 0.016300 0.000000
0.928900 0.000800 0.000000
0.928900 0.013900 0.000000
0.941000 0.001100 0.000000
0.941000 0.011700 0.000000
0.952000 0.001300 0.000000
0.952000 0.009600 0.000000
0.961900 0.001300 0.000000
0.961900 0.007800 0.000000
0.970800 0.001100 0.000000
0.970800 0.006100 0.000000
0.978500 0.000900 0.000000
0.978500 0.004600 0.000000
0.985000 0.000700 0.000000
0.985000 0.003300 0.000000
0.990400 0.000500 0.000000
0.990400 0.002200 0.000000
0.994600 0.000300 0.000000
0.994600 0.001300 0.000000
0.997600 0.000100 0.000000
0.997600 0.000700 0.000000
0.999400 0.000000 0.000000
0.999400 0.000300 0.000000
1.000000 0.000000 0.000000
-1.500000 -1.500000 0.000000
2.000000 -1.500000 0.000000
2.000000 1.500000 0.000000
-1.500000 1.500000 0.000000
2.000000 -1.500000 0.005000
2.000000 1.500000 0.005000
-1.500000 1.500000 0.005000
-1.500000 -1.500000 0.005000
1.000000 0.000000 0.005000
0.999400 0.000300 0.005000
0.997600 0.000700 0.005000
0.994600 0.001300 0.005000
0.990400 0.002200 0.005000
0.985000 0.003300 0.005000
0.978500 0.004600 0.005000
0.970800 0.006100 0.005000
0.961900 0.007800 0.005000
0.952000 0.009600 0.005000
0.941000 0.011700 0.005000
0.928900 0.013900 0.005000
0.915700 0.016300 0.005000
0.901600 0.018700 0.005000
0.886500 0.021300 0.005000
0.870500 0.024000 0.005000
0.853600 0.026700 0.005000
0.835800 0.029500 0.005000
0.817200 0.032300 0.005000
0.797900 0.035100 0.005000
0.777800 0.038000 0.005000
0.757100 0.040800 0.005000
0.735700 0.043400 0.005000
0.713800 0.046100 0.005000
0.691300 0.048600 0.005000
0.668500 0.051100 0.005000
0.645100 0.053400 0.005000
0.621500 0.055500 0.005000
0.597500 0.057300 0.005000
0.573400 0.059000 0.005000
0.549000 0.060300 0.005000
0.524500 0.061400 0.005000
0.500000 0.062100 0.005000
0.475500 0.062600 0.005000
0.451000 0.062900 0.005000
0.426600 0.062900 0.005000
0.402500 0.062600 0.005000
0.378500 0.062200 0.005000
0.354900 0.061600 0.005000
0.331600 0.060700 0.005000
0.308700 0.059700 0.005000
0.286200 0.058500 0.005000
0.264300 0.057100 0.005000
0.243000 0.055600 0.005000
0.222200 0.053800 0.005000
0.202200 0.051900 0.005000
0.182800 0.049900 0.005000
0.164200 0.047800 0.005000
0.146500 0.045600 0.005000
0.129500 0.043200 0.005000
0.113500 0.040700 0.005000
0.098400 0.038200 0.005000
0.084300 0.035500 0.005000
0.071100 0.032800 0.005000
0.059000 0.030000 0.005000
0.048000 0.027300 0.005000
0.038100 0.024500 0.005000
0.029200 0.021600 0.005000
0.021500 0.018800 0.005000
0.015000 0.015800 0.005000
0.009600 0.012700 0.005000
0.005400 0.009500 0.005000
0.002400 0.006400 0.005000
0.000600 0.003200 0.005000
0.000000 0.000000 0.005000
0.000600 -0.003200 0.005000
0.002400 -0.006600 0.005000
0.005400 -0.009600 0.005000
0.009600 -0.012700 0.005000
0.015000 -0.015800 0.005000
0.021500 -0.018800 0.005000
0.029200 -0.021800 0.005000
0.038100 -0.024700 0.005000
0.048000 -0.027600 0.005000
0.059000 -0.030400 0.005000
0.071100 -0.033200 0.005000
0.084300 -0.035800 0.005000
0.098400 -0.038400 0.005000
0.113500 -0.040900 0.005000
0.129500 -0.043300 0.005000
0.146500 -0.045600 0.005000
0.164200 -0.047800 0.005000
0.182800 -0.049800 0.005000
0.202200 -0.051700 0.005000
0.222200 -0.053400 0.005000
0.243000 -0.055000 0.005000
0.264300 -0.056400 0.005000
0.286200 -0.057500 0.005000
0.308700 -0.058400 0.005000
0.331600 -0.059000 0.005000
0.354900 -0.059200 0.005000
0.378500 -0.058900 0.005000
0.402500 -0.058200 0.005000
0.426600 -0.056900 0.005000
0.451000 -0.055200 0.005000
0.475500 -0.053000 0.005000
0.500000 -0.050400 0.005000
0.524500 -0.047600 0.005000
0.549000 -0.044500 0.005000
0.573400 -0.041300 0.005000
0.597500 -0.037900 0.005000
0.621500 -0.034600 0.005000
0.645100 -0.031100 0.005000
0.668500 -0.027700 0.005000
0.691300 -0.024400 0.005000
0.713800 -0.021200 0.005000
0.735700 -0.018100 0.005000
0.757100 -0.015200 0.005000
0.777800 -0.012600 0.005000
0.797900 -0.010100 0.005000
0.817200 -0.007900 0.005000
0.835800 -0.005900 0.005000
0.853600 -0.004200 0.005000
0.870500 -0.002700 0.005000
0.886500 -0.001500 0.005000
0.901600 -0.000500 0.005000
0.915700 0.000300 0.005000
0.928900 0.000800 0.005000
0.941000 0.001100 0.005000
0.952000 0.001300 0.005000
0.961900 0.001300 0.005000
0.970800 0.001100 0.005000
0.978500 0.000900 0.005000
0.985000 0.000700 0.005000
0.990400 0.000500 0.005000
0.994600 0.000300 0.005000
0.997600 0.000100 0.005000
0.999400 0.000000 0.005000
1.940619 1.500000 0.000000
1.880735 1.500000 0.000000
1.820342 1.500000 0.000000
1.759437 1.500000 0.000000
1.698016 1.500000 0.000000
1.636073 1.500000 0.000000
1.573606 1.500000 0.000000
1.510608 1.500000 0.000000
1.447075 1.500000 0.000000
1.383004 1.500000 0.000000
1.318389 1.500000 0.000000
1.253227 1.500000 0.000000
1.187511 1.500000 0.000000
1.121238 1.500000 0.000000
1.054403 1.500000 0.000000
0.987000 1.500000 0.000000
0.919026 1.500000 0.000000
0.850476 1.500000 0.000000
0.781343 1.500000 0.000000
0.711625 1.500000 0.000000
0.641315 1.500000 0.000000
0.570408 1.500000 0.000000
0.498900 1.500000 0.000000
0.426786 1.500000 0.000000
0.354060 1.500000 0.000000
0.280716 1.500000 0.000000
0.206751 1.500000 0.000000
0.132158 1.500000 0.000000
0.056932 1.500000 0.000000
-0.018931 1.500000 0.000000
-0.095439 1.500000 0.000000
-0.172595 1.500000 0.000000
-0.250406 1.500000 0.000000
-0.328877 1.500000 0.000000
-0.408013 1.500000 0.000000
-0.487821 1.500000 0.000000
-0.568306 1.500000 0.000000
-0.649474 1.500000 0.000000
-0.731330 1.500000 0.000000
-0.813880 1.500000 0.000000
-0.897131 1.500000 0.000000
-0.981088 1.500000 0.000000
-1.065757 1.500000 0.000000
-1.151145 1.500000 0.000000
-1.237257 1.500000 0.000000
-1.324099 1.500000 0.000000
-1.411678 1.500000 0.000000
-1.500000 1.411765 0.000000
-1.500000 1.323529 0.000000
-1.500000 1.235294 0.000000
-1.500000 1.147059 0.000000
-1.500000 1.058824 0.000000
-1.500000 0.970588 0.000000
-1.500000 0.882353 0.000000
-1.500000 0.794118 0.000000
-1.500000 0.705882 0.000000
-1.500000 0.617647 0.000000
-1.500000 0.529412 0.000000
-1.500000 0.441176 0.000000
-1.500000 0.352941 0.000000
-1.500000 0.264706 0.000000
-1.500000 0.176471 0.000000
-1.500000 0.088235 0.000000
-1.500000 0.000000 0.000000
-1.500000 -0.088235 0.000000
-1.500000 -0.176471 0.000000
-1.500000 -0.264706 0.000000
-1.500000 -0.352941 0.000000
-1.500000 -0.441176 0.000000
-1.500000 -0.529412 0.000000
-1.500000 -0.617647 0.000000
-1.500000 -0.705882 0.000000
-1.500000 -0.794118 0.000000
-1.500000 -0.882353 0.000000
-1.500000 -0.970588 0.000000
-1.500000 -1.058824 0.000000
-1.500000 -1.147059 0.000000
-1.500000 -1.235294 0.000000
-1.500000 -1.323529 0.000000
-1.500000 -1.411765 0.000000
-1.411678 -1.500000 0.000000
-1.324099 -1.500000 0.000000
-1.237257 -1.500000 0.000000
-1.151145 -1.500000 0.000000
-1.065757 -1.500000 0.000000
-0.981088 -1.500000 0.000000
-0.897131 -1.500000 0.000000
-0.813880 -1.500000 0.000000
-0.731330 -1.500000 0.000000
-0.649474 -1.500000 0.000000
-0.568306 -1.500000 0.000000
-0.487821 -1.500000 0.000000
-0.408013 -1.500000 0.000000
-0.328877 -1.500000 0.000000
-0.250406 -1.500000 0.000000
[...]
CELL_DATA 18477
SCALARS Density double 1
LOOKUP_TABLE default
       0.4482943577116320
       0.4093498933621771
       0.4398499536904196
       0.4096765167854958
       0.3147801064602339
       0.4235212519493847
       0.4440239484564285
       0.4025780482828630
       0.4430337345011131
       0.4634430964037957
       0.4578702956758310
       0.4620675962496858
       0.4182414614795764
       0.4170494947863943
       0.3250330391578070
       0.4236564734846550
       0.4571304751310283
       0.3546825897932424
       0.4290467003664608
       0.4747256559523875
       0.4926371824395433
       0.4366405103713350
       0.4227406344297113
       0.3832255873857160
       0.4956335068586132
       0.4547878064812478
       0.4750373688997599
       0.4605384167443876
       0.4365589503600384
       0.3750007743703533
       0.3739054977322627
       0.4865071164219654
       0.4338468683888361
       0.3894204924772901
       0.4223361551063859
       0.4106111016173704
       0.4769026844044541
       0.4552917900433278
       0.3747184913750243
       0.4659530207466292
       0.3556484174055001
       0.4045991731448389
       0.3945325798446544
       0.4937181761943619
       0.4609723092504421
       0.4563199768864469
       0.4328841444241908
       0.3930625901424786
       0.4654343650516341
       0.4577618578061271
       0.4634546884629791
       0.4362533870762622
       0.4530423319185100
       0.4172998595924438
       0.3337432325564060
       0.4105238384133456
       0.4689088921065057
       0.4579651624191883
       0.4550703428040295
       0.4088471592052897
       0.4339927619061132
       0.4131743988267356
       0.3491556591545574
       0.4738863892965730
       0.4577457350281909
       0.4473014722890308
       0.4639234964323307
       0.4453503315798960
       0.4573232012088423
       0.4264096932903580
       0.4541341438585398
       0.4424286617420529
       0.3504832235087544
       0.4651729975833749
       0.3368851997885977
       0.4663913328443793
       0.4075071001975250
       0.4551282160374495
       0.4361793529440021
       0.4116328051059394
       0.4259864287837011
       0.4787011915587300
       0.4583166168758343
       0.3198135644101758
       0.4131629744405797
       0.4676345294203584
       0.4362399418258927
       0.4702189733596742
       0.4399524054537624
       0.4418280033658358
       0.4163952649020402
       0.4406137473764709
       0.4841133609294666
       0.4298441928892042
       0.4543732340470981
       0.4753050840158244
       0.4454754036352970
       0.4492405133298355
       0.4404690708463611
       0.3147139173104071
       0.4409527454092187
       0.4437903056738399
       0.4532270284394155
       0.4275472418481048
       0.4569772777525309
       0.4122123517223515
       0.4743515265849463
       0.4165469310603068
       0.4316654676822368
       0.4475902063269742
       0.4415868319057403
       0.4460873381643451
       0.4644649291402349
       0.4697386601004778
       0.4657032970130394
       0.4084230899277170
       0.4199983134007723
       0.4555866372359383
       0.4498173055161420
       0.4674128939174031
       0.4605545631284272
       0.4738803662800627
       0.4585683403369519
       0.4569266955060298
       0.5012777601943380
       0.4214456238864183
       0.4191628300872577
       0.3257255511735355
       0.4106826911350709
       0.3201480459991735
       0.4470986544643010
       0.4192192312504646
       0.3394359641455106
       0.4605860916021007
       0.4674818406485251
       0.4783509422401260
       0.4562431340704490
       0.3131984841881372
       0.3718758522689989
       0.4490064726134873
       0.4437866985653058
       0.4668654407839185
       0.4167401856452507
       0.4794294687157857
       0.4564732592151036
       0.4245564781054955
       0.4561839666853248
       0.4606225133383399
       0.3240924931960812
       0.4284937364353299
       0.4381511811400512
       0.3513268161877161
       0.4260461252156724
       0.3528248528582259
       0.4478452932095079
       0.4450034173031823
       0.3853992953261419
       0.3384586129382162
       0.4518779864588731
       0.4618821695118851
       0.4639532257395637
       0.4541041299665495
       0.4804994481100117
       0.4697809163854655
       0.4638692812963015
       0.4547320617869959
       0.4165970880239558
       0.3284559434336934
       0.4561868091454531
       0.4198195623967733
       0.4665577178641670
       0.4994284906783562
       0.4522020037420291
       0.5121082698748376
       0.4635934483636099
       0.4614250461447083
       0.4312276708564592
       0.4536967846998668
       0.4019367245914122
       0.3911652640482379
       0.3904749523775431
       0.4448747226796883
       0.3182830417144157
       0.4390554881921745
       0.4580973950134518
       0.3922649028437971
       0.4818965410235419
       0.4522847829136493
       0.4639064411915794
       0.4642268667805677
       0.4518873825677067
       0.4159085312103864
       0.3456947303066883
       0.4331910443763765
       0.4820420815339378
       0.4532867074189579
       0.4383024149777236
       0.4439449600651150
       0.4261064247422719
       0.4348539200333838
       0.4238242243618884
       0.4580431084730807
       0.4710939805596457
       0.3457316028562566
       0.4537687090539457
       0.4567650037700111
       0.4692739348748401
       0.4683665941195213
       0.4586284921021497
       0.4510049183166323
       0.4890763440305297
       0.4514747283936861
       0.4385394064797222
       0.3220752370784654
       0.4279023104192938
       0.3343736536845027
       0.3918318952894793
       0.3192613181080412
       0.4361318902896161
       0.4457879308948014
       0.4718091365407098
       0.4722840304191622
       0.3233984855810065
       0.4519142059253101
       0.3401482914217203
       0.4431302827191013
       0.3215551138150495
       0.4644565095564622
       0.4441559722359686
       0.4632978279314244
       0.4231174212085325
       0.4635370671623876
       0.4656220213950859
       0.4521672021598273
       0.3101898352621038
       0.4735093213736751
       0.3812902061698910
       0.4396899978041107
       0.3345125148542483
       0.4587787931180333
       0.3472297299887626
       0.4615953522145206
       0.4250649840657709
       0.4431786540134208
       0.4458067384455981
       0.4620874822679721
       0.4699399723081363
       0.4713405247811755
       0.3714685064371748
       0.3353598069663595
       0.4516844417104269
       0.4560100409195323
       0.3327605700506304
       0.4139376007119642
       0.4443072280387018
       0.4496860973367894
       0.4545493759272510
       0.4059829909342636
       0.4339023030080375
       0.4536161795268747
       0.4451586767073810
       0.4582047498567215
       0.3538606186240682
       0.4591175005190735
       0.4590458962655843
       0.3561384271116839
       0.4450368492712170
       0.4138653835786794
       0.4543216081037840
       0.4584830124743896
       0.4751935151896937
       0.5229729385350292
       0.4191062035219622
       0.3437080393436426
       0.4379844532320549
       0.4065767348864084
       0.4766542828409409
       0.4557306235814685
       0.4123392598506840
       0.4462937894220493
       0.4395437621656849
       0.3192582007358480
       0.4684021643797838
       0.4531770102369276
       0.4315658794141801
       0.4560224888236807
       0.4666761337864584
       0.4535647416946298
       0.4055143372644806
       0.4336250473240740
       0.3145891861068850
       0.4072705846903705
       0.5051410009769953
       0.4685147111106324
       0.4547858590143948
       0.4397766705762285
       0.4555173386777854
       0.4532093062056045
       0.3361129072504335
       0.4226261818512931
       0.5168117653688573
       0.4220657702798916
       0.4585318805645026
       0.4645303499389722
       0.4468028099341138
       0.4544199186471026
       0.4712279870015723
       0.4497463263397409
       0.3153250297479764
       0.4735178654952931
       0.4622939506007328
       0.3601404376863208
       0.4527156320984738
       0.4568004942097668
       0.4344508337127816
       0.4560680428787434
       0.4715129863380533
       0.5051562327830260
       0.4762182164628039
       0.4601820458698740
       0.5029863988470812
       0.3545806429511212
       0.4242383350170673
       0.4759713431795168
       0.4594747760377998
       0.4208618363186998
       0.4496835935589682
       0.4727808755042623
       0.4465262411465243
       0.4335976393402962
       0.4530374720737766
       0.4447806195511501
       0.4323583013222470
       0.4066656077953096
       0.4568259470455729
       0.4649648568267846
       0.4607461719937726
       0.4297851341272735
       0.3955225622361738
       0.4794105214424915
       0.4338580399713449
       0.4784174461280688
       0.4566737185112192
       0.4554698050741892
       0.3879421664610702
       0.4558635791179590
       0.4250735502012867
       0.3826902239846431
       0.4455405986215191
       0.4516271307812165
       0.4212385098766003
       0.4618698072463808
       0.3120804232888467
       0.4536230597330362
       0.4386460119568785
       0.4010527772053279
       0.4425344995030063
       0.4549459570380372
       0.4422257135773585
       0.3299132731252837
       0.5026124914775368
       0.4668146297456884
       0.4460717077372356
       0.4569959698857228
       0.3786094806439612
       0.4820602725111692
       0.4573051969855048
       0.3156827211174102
       0.4611856221012915
       0.4582135143218757
       0.4332169692684676
       0.4354048224605681
       0.3919697105200086
       0.4575258458649230
       0.4750070956969470
       0.4465109938498158
       0.4782751552926928
       0.4392310484276967
       0.4450565181520406
       0.4266557120931876
       0.3958552214682478
       0.3215560036471972
       0.3616271009388183
       0.4418232709094758
       0.4296602601764671
       0.4306981086941863
       0.3524537134462564
       0.4557764937758942
       0.4266490282172170
       0.3113234480471381
       0.3865291668435438
       0.4291277598410990
       0.4352304600206414
       0.3564963211307216
       0.4689271128424849
       0.4625316959421213
       0.4524403533675262
       0.4124850810328098
       0.3794363581291840
       0.4256741903403469
       0.3876536361594666
       0.4116731809965146
       0.4063106264689419
       0.4081516705049651
       0.4412199262556884
       0.5133144004481932
       0.4433076623491490
       0.4356929965191345
       0.4506158214933971
       0.3694442189809811
       0.3539142396586555
       0.4568767098338289
       0.4406189215447298
       0.4267876418357510
       0.3988200433077129
       0.4457384224810886
       0.4175695572905377
       0.3223249599582650
       0.4921096271379563
       0.4542028197699153
       0.4441441147674117
       0.4554091817954382
       0.4566660782602380
       0.4548541455294769
       0.3452483191792167
       0.4730500101906544
       0.4551917413083264
       0.3763340527737071
       0.3776012152732811
       0.3533655992015842
       0.4434442076538802
       0.3114185887129464
       0.4571895037727094
       0.4750896795431886
       0.4575884196755655
       0.3269542038079141
       0.4168739276794322
       0.4436251893642535
       0.4198442516875268
       0.4542166886763357
       0.4128866519027791
       0.3777137389475198
       0.4572287595573384
       0.4270972209147121
       0.4481376434507734
       0.4248002754102105
       0.4789525255054407
       0.4613659110744435
       0.5017098011327156
       0.3988929595115919
       0.4514002089805662
       0.4348374556597476
       0.3793153522956690
       0.4650763670710268
       0.4604063119005544
       0.4592634305365065
       0.4346035382853193
       0.3114115783383303
       0.4535120541685635
       0.3455513627917757
       0.4489602559827119
       0.4576433776793867
       0.4481660712187674
       0.3328680306096889
       0.4173614266802735
       0.3809674885882530
       0.4405926700209513
       0.4557211172192184
       0.4571019958600067
       0.4249899292561437
       0.4577714667648904
       0.4596613403082563
       0.3268458722490974
       0.4338575397543043
       0.4393227144741251
       0.4432402835850664
       0.4619437920506546
       0.4567691716345947
       0.4509407168729363
       0.4260345931014750
       0.4168662381154357
       0.3795646982979513
       0.4363539250137135
       0.4194240041221054
       0.5239604662464977
       0.4414233712811552
       0.4484074011677870
       0.4415522883752270
       0.4454910886451350
       0.4511177075237190
       0.4476842609763984
       0.4466932816178000
       0.3647155949663171
       0.4287650740391286
       0.4151345960113740
       0.3245026382638583
       0.4567371674087656
       0.3345948643683967
       0.4339624357659868
       0.4256645014752505
       0.4554881265854151
       0.3551054965525103
       0.4278285582751141
       0.3786145927637461
       0.3730915831849281
       0.4523386295996621
       0.4435087816437697
       0.4106132275980507
       0.3583986142160402
       0.4410445811114491
       0.4728497767819742
       0.4962198099050348
       0.4255997356489892
       0.4281274377042044
       0.4907464041068414
       0.4486678910754556
       0.4694751920016221
       0.4357434459448399
       0.4487344496862702
       0.4062877322702989
       0.4610733352563724
       0.4664121577804355
       0.3271386367163003
       0.4464714176120024
       0.4262632157040995
       0.4578811796863603
       0.4576478892887005
       0.4546892943148405
       0.3517815359819305
       0.4462951382715069
       0.4583663748783252
       0.4795836706014900
       0.4375273180628196
       0.4638419951354737
       0.4626476655848383
       0.4355268647861753
       0.4639040807326270
       0.3111535288967744
       0.4545784616790935
       0.4419195944023699
       0.4286311493064180
       0.4684294499394765
       0.4630936076421921
       0.4544602675105733
       0.4642629979181563
       0.4271294650200315
       0.4543972059558870
       0.4568008556813216
       0.4461906530736047
       0.4557372219397249
       0.4745371307504247
       0.4588062441006808
       0.4693504023963402
       0.4742234459857124
       0.3900816290044353
       0.3919529359287956
       0.4607320533596790
       0.4451151613153462
       0.4293716461833187
       0.3693647098584930
       0.4505146963705579
       0.4407493902493906
       0.3732372886204188
       0.4253215518064358
       0.4572241783725725
       0.3322825544619997
       0.4686380161500692
       0.4480957899537240
       0.4031118334003578
       0.4901007475208953
       0.4596044008077974
       0.4395338638171185
       0.4525947242796499
       0.4289566013251124
       0.4559959911021846
       0.4582640956558442
       0.3245202203338991
       0.4723109901901691
       0.4514336287878902
       0.4419244628473870
       0.4675320512039800
       0.4068010053075235
       0.3649220917338035
       0.4694337175226490
       0.4592153964338556
       0.5251240709670144
       0.4822364127642657
       0.4383333518406688
       0.4735785246851739
       0.4011997123323286
       0.4810441489379709
       0.3249922737986070
       0.4543244439656563
       0.4514948746348066
       0.3936093437591076
       0.4315008638024901
       0.4515695168208387
       0.4629384974927617
       0.4535866258024497
       0.4626576044631250
       0.3297003990423533
       0.4862137802827290
       0.4336025469480434
       0.4536073512094221
       0.3946859835275737
       0.4463836788300042
       0.4540328164866932
       0.4429442630681785
       0.4742498392312311
       0.4431398226028168
       0.3470965755975582
       0.4674316944666591
       0.4135238483074998
       0.4525866393920747
       0.4552327888464777
       0.4428304157572339
       0.4226413850921440
       0.4633871304085316
       0.4509742650982284
       0.4507659559941313
       0.3548921921832196
       0.4686237872440425
       0.3719817019520489
       0.4626576714838105
       0.3857361717633795
       0.4423707104973726
       0.4451928908160339
       0.4641207246231031
       0.4599926569722886
       0.4333098501816259
       0.4076776571949527
       0.3443573879151815
       0.4038052872341255
       0.4761058774546036
       0.4833282689414520
       0.4075334183238973
       0.4673701294064351
       0.4653378293533180
       0.4465637110244357
       0.3264879849641018
       0.3397549216779410
       0.4619508648662234
       0.4727180004105210
       0.4753786425945155
       0.4686985059638020
       0.4556393330791892
       0.3357706179421023
       0.4426240894347435
       0.3223932649824262
       0.4593321030711066
       0.4633911034679447
       0.3296937769736018
       0.4098489411674727
       0.4555736794681151
       0.4544909657412109
       0.4677268449270216
       0.4573782758400258
       0.4563249590857397
       0.4760100601731336
       0.4549420714325790
       0.3223040359250122
       0.4427795982070870
       0.3581654870865339
       0.4543901633270145
       0.4288838255087574
       0.4560570330730712
       0.4077009661460273
       0.4436317745175230
       0.4412149216002164
       0.4083290331225158
       0.3724089464281596
       0.4640861011007254
       0.3599344796944805
       0.4167522767524849
       0.4264395595154359
       0.4562326506663895
       0.4333826599832419
       0.4668966831363182
       0.4520452708275159
       0.4602698664192444
       0.4289282504035571
       0.3249675048866070
       0.4456120498578927
       0.4232077300348598
       0.4446585540753594
       0.4562887391718646
       0.4872378232825406
       0.4706099533637244
       0.4292711518572448
       0.4641679563460574
       0.4612266687038743
       0.4757207231471232
       0.3544719164906015
       0.4557437699501963
       0.4091575316633740
       0.3737574927067244
       0.4457590106521227
       0.5132179033927912
       0.4702110902125444
       0.4746579777866229
       0.3286477630608082
       0.4261593147920524
       0.4468535347951126
       0.4338313348743211
       0.4728735676331642
       0.4596496659957466
       0.4555041514703209
       0.4515900696940775
       0.3474181882250561
       0.4160967250162224
       0.4318623616503097
       0.4732879218602878
       0.4562597231109392
       0.4637151396226202
       0.4705170344158095
       0.3175502765301014
       0.4270197410834613
       0.4538121089167211
       0.3676753700240318
       0.4570882269068815
       0.3701780554858848
       0.4647634773871659
       0.5297131263826601
       0.4404230758686765
       0.3539142473793113
       0.4609244899181918
       0.4017588248409847
       0.4544184166271055
       0.4638998968081726
       0.4561424225771872
       0.4718472631821631
       0.4319250859698232
       0.3773232891640593
       0.4577041742065803
       0.3993629088376229
       0.3811173006371496
       0.3142238396493532
       0.4464577102479274
       0.4311713383503509
       0.4425987048251244
       0.4355297482156429
       0.4386944885068992
       0.4128507428787179
       0.4555059170753453
       0.4423214122542245
       0.3282667151937353
       0.4680727537205202
       0.3406128438731652
       0.4460987901430430
       0.3327657775376253
       0.4253279322421510
       0.4411261011629894
       0.4428490912594236
       0.4545650193934135
       0.4706153421190422
       0.3837146173266030
       0.4209710430554580
       0.4230084726502648
       0.4226515835957611
       0.4133673241992791
       0.4465307299920653
       0.3584753191640618
       0.3438316483526084
       0.3371281154342149
       0.3173430632082063
       0.4687104514852287