# vtk DataFile Version 3.0
GASDIN data file
ASCII
DATASET UNSTRUCTURED_GRID
POINTS 33802 double
0.000000 0.000000 0.000000
0.000600 -0.003200 0.000000
0.000600 0.003200 0.000000
0.002400 -0.006600 0.000000
0.002400 0.006400 0.000000
0.005400 -0.009600 0.000000
0.005400 0.009500 0.000000
0.009600 -0.012700 0.000000
0.009600 0.012700 0.000000
0.015000 -0.015800 0.000000
0.015000 0.015800 0.000000
0.021500 -0.018800 0.000000
0.021500 0.018800 0.000000
0.029200 -0.021800 0.000000
0.029200 0.021600 0.000000
0.038100 -0.024700 0.000000
0.038100 0.024500 0.000000
0.048000 -0.027600 0.000000
0.048000 0.027300 0.000000
0.059000 -0.030400 0.000000
0.059000 0.030000 0.000000
0.071100 -0.033200 0.000000
0.071100 0.032800 0.000000
0.084300 -0.035800 0.000000
0.084300 0.035500 0.000000
0.098400 -0.038400 0.000000
0.098400 0.038200 0.000000
0.113500 -0.040900 0.000000
0.113500 0.040700 0.000000
0.129500 -0.043300 0.000000
0.129500 0.043200 0.000000
0.146500 -0.045600 0.000000
0.146500 0.045600 0.000000
0.164200 -0.047800 0.000000
0.164200 0.047800 0.000000
0.182800 -0.049800 0.000000
0.182800 0.049900 0.000000
0.202200 -0.051700 0.000000
0.202200 0.051900 0.000000
0.222200 -0.053400 0.000000
0.222200 0.053800 0.000000
0.243000 -0.055000 0.000000
0.243000 0.055600 0.000000
0.264300 -0.056400 0.000000
0.264300 0.057100 0.000000
0.286200 -0.057500 0.000000
0.286200 0.058500 0.000000
0.308700 -0.058400 0.000000
0.308700 0.059700 0.000000
0.331600 -0.059000 0.000000
0.331600 0.060700 0.000000
0.354900 -0.059200 0.000000
0.354900 0.061600 0.000000
0.378500 -0.058900 0.000000
0.378500 0.062200 0.000000
0.402500 -0.058200 0.000000
0.402500 0.062600 0.000000
0.426600 -0.056900 0.000000
0.426600 0.062900 0.000000
0.451000 -0.055200 0.000000
0.451000 0.062900 0.000000
0.475500 -0.053000 0.000000
0.475500 0.062600 0.000000
0.500000 -0.050400 0.000000
0.500000 0.062100 0.000000
0.524500 -0.047600 0.000000
0.524500 0.061400 0.000000
0.549000 -0.044500 0.000000
0.549000 0.060300 0.000000
0.573400 -0.041300 0.000000
0.573400 0.059000 0.000000
0.597500 -0.037900 0.000000
0.597500 0.057300 0.000000
0.621500 -0.034600 0.000000
0.621500 0.055500 0.000000
0.645100 -0.031100 0.000000
0.645100 0.053400 0.000000
0.668500 -0.027700 0.000000
0.668500 0.051100 0.000000
0.691300 -0.024400 0.000000
0.691300 0.048600 0.000000
0.713800 -0.021200 0.000000
0.713800 0.046100 0.000000
0.735700 -0.018100 0.000000
0.735700 0.043400 0.000000
0.757100 -0.015200 0.000000
0.757100 0.040800 0.000000
0.777800 -0.012600 0.000000
0.777800 0.038000 0.000000
0.797900 -0.010100 0.000000
0.797900 0.035100 0.000000
0.817200 -0.007900 0.000000
0.817200 0.032300 0.000000
0.835800 -0.005900 0.000000
0.835800 0.029500 0.000000
0.853600 -0.004200 0.000000
0.853600 0.026700 0.000000
0.870500 -0.002700 0.000000
0.870500 0.024000 0.000000
0.886500 -0.001500 0.000000
0.886500 0.021300 0.000000
0.901600 -0.000500 0.000000
0.901600 0.018700 0.000000
0.915700 0.000300 0.000000
0.915700 0.016300 0.000000
0.928900 0.000800 0.000000
0.928900 0.013900 0.000000
0.941000 0.001100 0.000000
0.941000 0.011700 0.000000
0.952000 0.001300 0.000000
0.952000 0.009600 0.000000
0.961900 0.001300 0.000000
0.961900 0.007800 0.000000
0.970800 0.001100 0.000000
0.970800 0.006100 0.000000
0.978500 0.000900 0.000000
0.978500 0.004600 0.000000
0.985000 0.000700 0.000000
0.985000 0.003300 0.000000
0.990400 0.000500 0.000000
0.990400 0.002200 0.000000
0.994600 0.000300 0.000000
0.994600 0.001300 0.000000
0.997600 0.000100 0.000000
0.997600 0.000700 0.000000
0.999400 0.000000 0.000000
0.999400 0.000300 0.000000
1.000000 0.000000 0.000000
-1.500000 -1.500000 0.000000
2.000000 -1.500000 0.000000
2.000000 1.500000 0.000000
-1.500000 1.500000 0.000000
2.000000 -1.500000 0.005000
2.000000 1.500000 0.005000
-1.500000 1.500000 0.005000
-1.500000 -1.500000 0.005000
1.000000 0.000000 0.005000
0.999400 0.000300 0.005000
0.997600 0.000700 0.005000
0.994600 0.001300 0.005000
0.990400 0.002200 0.005000
0.985000 0.003300 0.005000
0.978500 0.004600 0.005000
0.970800 0.006100 0.005000
0.961900 0.007800 0.005000
0.952000 0.009600 0.005000
0.941000 0.011700 0.005000
0.928900 0.013900 0.005000
0.915700 0.016300 0.005000
0.901600 0.018700 0.005000
0.886500 0.021300 0.005000
0.870500 0.024000 0.005000
0.853600 0.026700 0.005000
0.835800 0.029500 0.005000
0.817200 0.032300 0.005000
0.797900 0.035100 0.005000
0.777800 0.038000 0.005000
0.757100 0.040800 0.005000
0.735700 0.043400 0.005000
0.713800 0.046100 0.005000
0.691300 0.048600 0.005000
0.668500 0.051100 0.005000
0.645100 0.053400 0.005000
0.621500 0.055500 0.005000
0.597500 0.057300 0.005000
0.573400 0.059000 0.005000
0.549000 0.060300 0.005000
0.524500 0.061400 0.005000
0.500000 0.062100 0.005000
0.475500 0.062600 0.005000
0.451000 0.062900 0.005000
0.426600 0.062900 0.005000
0.402500 0.062600 0.005000
0.378500 0.062200 0.005000
0.354900 0.061600 0.005000
0.331600 0.060700 0.005000
0.308700 0.059700 0.005000
0.286200 0.058500 0.005000
0.264300 0.057100 0.005000
0.243000 0.055600 0.005000
0.222200 0.053800 0.005000
0.202200 0.051900 0.005000
0.182800 0.049900 0.005000
0.164200 0.047800 0.005000
0.146500 0.045600 0.005000
0.129500 0.043200 0.005000
0.113500 0.040700 0.005000
0.098400 0.038200 0.005000
0.084300 0.035500 0.005000
0.071100 0.032800 0.005000
0.059000 0.030000 0.005000
0.048000 0.027300 0.005000
0.038100 0.024500 0.005000
0.029200 0.021600 0.005000
0.021500 0.018800 0.005000
0.015000 0.015800 0.005000
0.009600 0.012700 0.005000
0.005400 0.009500 0.005000
0.002400 0.006400 0.005000
0.000600 0.003200 0.005000
0.000000 0.000000 0.005000
0.000600 -0.003200 0.005000
0.002400 -0.006600 0.005000
0.005400 -0.009600 0.005000
0.009600 -0.012700 0.005000
0.015000 -0.015800 0.005000
0.021500 -0.018800 0.005000
0.029200 -0.021800 0.005000
0.038100 -0.024700 0.005000
0.048000 -0.027600 0.005000
0.059000 -0.030400 0.005000
0.071100 -0.033200 0.005000
0.084300 -0.035800 0.005000
0.098400 -0.038400 0.005000
0.113500 -0.040900 0.005000
0.129500 -0.043300 0.005000
0.146500 -0.045600 0.005000
0.164200 -0.047800 0.005000
0.182800 -0.049800 0.005000
0.202200 -0.051700 0.005000
0.222200 -0.053400 0.005000
0.243000 -0.055000 0.005000
0.264300 -0.056400 0.005000
0.286200 -0.057500 0.005000
0.308700 -0.058400 0.005000
0.331600 -0.059000 0.005000
0.354900 -0.059200 0.005000
0.378500 -0.058900 0.005000
0.402500 -0.058200 0.005000
0.426600 -0.056900 0.005000
0.451000 -0.055200 0.005000
0.475500 -0.053000 0.005000
0.500000 -0.050400 0.005000
0.524500 -0.047600 0.005000
0.549000 -0.044500 0.005000
0.573400 -0.041300 0.005000
0.597500 -0.037900 0.005000
0.621500 -0.034600 0.005000
0.645100 -0.031100 0.005000
0.668500 -0.027700 0.005000
0.691300 -0.024400 0.005000
0.713800 -0.021200 0.005000
0.735700 -0.018100 0.005000
0.757100 -0.015200 0.005000
0.777800 -0.012600 0.005000
0.797900 -0.010100 0.005000
0.817200 -0.007900 0.005000
0.835800 -0.005900 0.005000
0.853600 -0.004200 0.005000
0.870500 -0.002700 0.005000
0.886500 -0.001500 0.005000
0.901600 -0.000500 0.005000
0.915700 0.000300 0.005000
0.928900 0.000800 0.005000
0.941000 0.001100 0.005000
0.952000 0.001300 0.005000
0.961900 0.001300 0.005000
0.970800 0.001100 0.005000
0.978500 0.000900 0.005000
0.985000 0.000700 0.005000
0.990400 0.000500 0.005000
0.994600 0.000300 0.005000
0.997600 0.000100 0.005000
0.999400 0.000000 0.005000
1.940619 1.500000 0.000000
1.880735 1.500000 0.000000
1.820342 1.500000 0.000000
1.759437 1.500000 0.000000
1.698016 1.500000 0.000000
1.636073 1.500000 0.000000
1.573606 1.500000 0.000000
1.510608 1.500000 0.000000
1.447075 1.500000 0.000000
1.383004 1.500000 0.000000
1.318389 1.500000 0.000000
1.253227 1.500000 0.000000
1.187511 1.500000 0.000000
1.121238 1.500000 0.000000
1.054403 1.500000 0.000000
0.987000 1.500000 0.000000
0.919026 1.500000 0.000000
0.850476 1.500000 0.000000
0.781343 1.500000 0.000000
0.711625 1.500000 0.000000
0.641315 1.500000 0.000000
0.570408 1.500000 0.000000
0.498900 1.500000 0.000000
0.426786 1.500000 0.000000
0.354060 1.500000 0.000000
0.280716 1.500000 0.000000
0.206751 1.500000 0.000000
0.132158 1.500000 0.000000
0.056932 1.500000 0.000000
-0.018931 1.500000 0.000000
-0.095439 1.500000 0.000000
-0.172595 1.500000 0.000000
-0.250406 1.500000 0.000000
-0.328877 1.500000 0.000000
-0.408013 1.500000 0.000000
-0.487821 1.500000 0.000000
-0.568306 1.500000 0.000000
-0.649474 1.500000 0.000000
-0.731330 1.500000 0.000000
-0.813880 1.500000 0.000000
-0.897131 1.500000 0.000000
-0.981088 1.500000 0.000000
-1.065757 1.500000 0.000000
-1.151145 1.500000 0.000000
-1.237257 1.500000 0.000000
-1.324099 1.500000 0.000000
-1.411678 1.500000 0.000000
-1.500000 1.411765 0.000000
-1.500000 1.323529 0.000000
-1.500000 1.235294 0.000000
-1.500000 1.147059 0.000000
-1.500000 1.058824 0.000000
-1.500000 0.970588 0.000000
-1.500000 0.882353 0.000000
-1.500000 0.794118 0.000000
-1.500000 0.705882 0.000000
-1.500000 0.617647 0.000000
-1.500000 0.529412 0.000000
-1.500000 0.441176 0.000000
-1.500000 0.352941 0.000000
-1.500000 0.264706 0.000000
-1.500000 0.176471 0.000000
-1.500000 0.088235 0.000000
-1.500000 0.000000 0.000000
-1.500000 -0.088235 0.000000
-1.500000 -0.176471 0.000000
-1.500000 -0.264706 0.000000
-1.500000 -0.352941 0.000000
-1.500000 -0.441176 0.000000
-1.500000 -0.529412 0.000000
-1.500000 -0.617647 0.000000
-1.500000 -0.705882 0.000000
-1.500000 -0.794118 0.000000
-1.500000 -0.882353 0.000000
-1.500000 -0.970588 0.000000
-1.500000 -1.058824 0.000000
-1.500000 -1.147059 0.000000
-1.500000 -1.235294 0.000000
-1.500000 -1.323529 0.000000
-1.500000 -1.411765 0.000000
-1.411678 -1.500000 0.000000
-1.324099 -1.500000 0.000000
-1.237257 -1.500000 0.000000
-1.151145 -1.500000 0.000000
-1.065757 -1.500000 0.000000
-0.981088 -1.500000 0.000000
-0.897131 -1.500000 0.000000
-0.813880 -1.500000 0.000000
-0.731330 -1.500000 0.000000
-0.649474 -1.500000 0.000000
-0.568306 -1.500000 0.000000
-0.487821 -1.500000 0.000000
-0.408013 -1.500000 0.000000
-0.328877 -1.500000 0.000000
-0.250406 -1.500000 0.000000
[...]
CELL_DATA 18477
SCALARS Density double 1
LOOKUP_TABLE default
       0.4730333254645012
       0.4413024680939925
       0.4653030744230203
       0.4450958807881427
       0.3819862076708454
       0.4542155642330274
       0.4711186443925803
       0.4226519638623059
       0.4699152893314804
       0.4866117283344978
       0.4810510931540407
       0.4845396766161372
       0.4501439188958204
       0.4485022199431360
       0.3663079678114022
       0.4523046946433390
       0.4809443631314947
       0.4057737146465723
       0.4581726069552027
       0.4964563236249784
       0.5116631007753241
       0.4652472537784276
       0.4537600958880391
       0.4241195322306931
       0.5119253270695349
       0.4784126710792412
       0.4958111189424039
       0.4843611923425963
       0.4565744011503683
       0.4281916848463548
       0.4275925454323098
       0.5068116721465871
       0.4612348119128110
       0.4320308327752695
       0.4533351328541974
       0.4478859103077195
       0.4977223471068997
       0.4789552928035794
       0.4271671482477035
       0.4878339715309850
       0.4052216976637827
       0.4375454889784375
       0.4331752676380885
       0.5125946000162862
       0.4836668295552156
       0.4798005822451589
       0.4595610065660169
       0.4395579477350117
       0.4873947657419184
       0.4808308003613605
       0.4848507431022384
       0.4623488174671420
       0.4762943114478532
       0.4511082868976670
       0.3951713210878913
       0.4498500861090652
       0.4905613731545750
       0.4809405253136519
       0.4793556221795385
       0.4401974652652040
       0.4623667614996114
       0.4458056778014530
       0.4035624484026463
       0.4948009339684136
       0.4809771145279160
       0.4738136726878299
       0.4860417264334364
       0.4724802197085419
       0.4804762836676727
       0.4568203218255802
       0.4780106556346239
       0.4681411053958767
       0.4124251906935938
       0.4869328057467500
       0.4011728239605053
       0.4884422465113518
       0.4396991428206439
       0.4788292084243185
       0.4633329459361316
       0.4505462313330379
       0.4539859935763030
       0.4990856272041502
       0.4819568824291710
       0.3888758147210541
       0.4501723000837022
       0.4893857738366845
       0.4647722231180006
       0.4916655357548568
       0.4676133904080252
       0.4671387343998256
       0.4473683831327638
       0.4659273443641739
       0.5032568185775135
       0.4590365828847348
       0.4780839094526284
       0.4960745647204499
       0.4706964779740199
       0.4753612120411679
       0.4669215382873614
       0.3852970579550908
       0.4679130044099580
       0.4701278668832798
       0.4779560587080689
       0.4553925135498240
       0.4798934262612572
       0.4448630509700557
       0.4889062004316586
       0.4470966566634243
       0.4588030033520852
       0.4723408265556724
       0.4667297538189165
       0.4711210338629073
       0.4865303060165112
       0.4912608743057472
       0.4875541484511597
       0.4377709060593596
       0.4516017964942310
       0.4793831987718884
       0.4757142327958681
       0.4889328735724079
       0.4829739311718274
       0.4949080105028665
       0.4814055681608725
       0.4802999378088435
       0.5193328964087514
       0.4528670856967014
       0.4557014225662681
       0.3933679805738019
       0.4416423719144171
       0.3898820155863066
       0.4719849258006505
       0.4486004920897134
       0.4041637949274727
       0.4833179268748883
       0.4887696755558680
       0.4989784242503213
       0.4802493963343308
       0.3819613502878896
       0.4184669850136207
       0.4730670625674756
       0.4712430908820195
       0.4886129716541932
       0.4541489057619834
       0.4996810295398931
       0.4799990258999366
       0.4543695110926554
       0.4796861856215097
       0.4833270285379676
       0.3629359625870821
       0.4572497434028379
       0.4590284760052366
       0.4137413196903538
       0.4541846115252724
       0.4147395554765036
       0.4726585539171483
       0.4695500507249356
       0.4199941513228405
       0.3872515068899261
       0.4761157225778892
       0.4848121365950797
       0.4859776647664554
       0.4789701276804025
       0.5008719611347718
       0.4911976211435314
       0.4864991463834306
       0.4784032727063544
       0.4486683892606818
       0.3928917436706346
       0.4802517227810181
       0.4542364579626272
       0.4882153954427882
       0.5168384511607282
       0.4759222819255476
       0.5286166795365264
       0.4858410254058725
       0.4845041861947883
       0.4586258389897740
       0.4776718125206812
       0.4273361392499150
       0.4065160362282778
       0.4278831668644406
       0.4702007407829489
       0.3882701138035702
       0.4646635471698274
       0.4816688166814836
       0.4149081589036225
       0.5019440081529105
       0.4748528467033202
       0.4866350100507846
       0.4863468099358028
       0.4761286732889767
       0.4480100812791307
       0.4039929650429444
       0.4618930086479756
       0.5021858383743616
       0.4783726233508351
       0.4481700670650821
       0.4693184218090469
       0.4567937218245958
       0.4631462658761056
       0.4547381032709032
       0.4812277751109121
       0.4926125996667125
       0.4065439698159020
       0.4773016355996120
       0.4802169470919259
       0.4917866110055726
       0.4901103206069646
       0.4792262653093496
       0.4766851276679712
       0.5075691680348937
       0.4757653850551277
       0.4648708308437937
       0.3912375119086693
       0.4582848940791544
       0.4002736479296912
       0.4152029149054409
       0.3890476745488591
       0.4635210081021980
       0.4703261184113558
       0.4931900676746646
       0.4932752216860147
       0.3923836635929072
       0.4761567067766007
       0.3807290874248363
       0.4688263202399403
       0.3641868229500823
       0.4865326086686400
       0.4695687812233628
       0.4855652095498717
       0.4541880925617108
       0.4854267559931432
       0.4879104305565051
       0.4761553686794431
       0.3782627871079199
       0.4944032012488589
       0.4212461318009633
       0.4677477131711330
       0.3649177962449131
       0.4823362252656707
       0.4103170226791113
       0.4836102001927430
       0.4534099211118373
       0.4673714824834160
       0.4728519535718033
       0.4851842284257228
       0.4912699902937054
       0.4922585800011809
       0.4033310069829880
       0.4019969126752683
       0.4739179963846188
       0.4793891960632978
       0.3970575016684649
       0.4444360849558560
       0.4697846406809688
       0.4737291980748985
       0.4782470700763234
       0.4450571202904711
       0.4628122502619801
       0.4776033846409428
       0.4694936457485258
       0.4818375556006279
       0.4152504217356681
       0.4825881470423661
       0.4831350132064720
       0.4168038560258994
       0.4704464471712522
       0.4300075733517987
       0.4791782066019420
       0.4815337956815812
       0.4922805376080038
       0.5376962559255406
       0.4508047742394707
       0.3999449722703583
       0.4628943369903805
       0.4304522489924220
       0.4971966660008351
       0.4797946259134299
       0.4448351540574700
       0.4708521352330737
       0.4677670571227520
       0.3889919514903771
       0.4901199010900582
       0.4778251416955326
       0.4606488745613792
       0.4789537825944331
       0.4885270344027954
       0.4786788198089253
       0.4380586593746021
       0.4602592849991274
       0.3825705998084611
       0.4477572167333500
       0.5225356487775846
       0.4909797453434127
       0.4784898943163541
       0.4658445614444208
       0.4793349808318347
       0.4769961126405046
       0.4021282161579243
       0.4530084520038244
       0.5329067874188390
       0.4566329914594960
       0.4820874366210442
       0.4876148483244788
       0.4715557318463879
       0.4790988292661494
       0.4925889028197680
       0.4735481085250267
       0.3829270905667215
       0.4944014772100968
       0.4851649226348016
       0.3789801889296965
       0.4761872197131219
       0.4801279978030595
       0.4619401092496744
       0.4800237123463573
       0.4937449079235706
       0.5226067627172187
       0.4968367137398155
       0.4828227809632281
       0.5163038692456977
       0.4151891181871943
       0.4530872849138976
       0.4965486193690052
       0.4822141464633590
       0.4544961764350609
       0.4751233582877283
       0.4939779158002942
       0.4734151199102005
       0.4629809867328137
       0.4781733411223129
       0.4695308551463540
       0.4626083107898608
       0.4388854411919760
       0.4799998471580781
       0.4869545167124107
       0.4832197532485560
       0.4530655842615723
       0.4317621190456198
       0.4996305690995954
       0.4610086773425833
       0.4987784631898413
       0.4810574823787888
       0.4793137595985196
       0.4339974333090190
       0.4793928800661668
       0.4531483562912896
       0.4250555945066948
       0.4724058836291484
       0.4740086132193391
       0.4504048156121981
       0.4848034926754516
       0.3776770125561673
       0.4785355404428262
       0.4660753539322644
       0.4347345355069049
       0.4691055910782157
       0.4777807523265835
       0.4680474480963352
       0.3975125049922211
       0.5186585828898085
       0.4884771473554644
       0.4663513313282384
       0.4805193524763795
       0.4211498205117135
       0.5022596619456019
       0.4805702827414327
       0.3850301308097562
       0.4828846074095143
       0.4807961865057347
       0.4599996866135618
       0.4627458338736444
       0.4382787964482614
       0.4818188165187058
       0.4957726297197017
       0.4697331373278585
       0.4996196031636971
       0.4578826761715727
       0.4722809364832616
       0.4571611288458677
       0.4326509345994664
       0.3770440917085792
       0.4139598177198882
       0.4686439463602437
       0.4569919879955895
       0.4615043598760361
       0.4104634135581703
       0.4782769038439936
       0.4419847516601275
       0.3811965110202005
       0.4328481313313470
       0.4578172458215132
       0.4635182698193272
       0.4171706485835593
       0.4905560384082756
       0.4854671833734542
       0.4766141192500447
       0.4435634397706754
       0.4313009836770761
       0.4551837479501392
       0.4269640099576756
       0.4507220287070822
       0.4387874297512187
       0.4398078584698176
       0.4679561484015741
       0.5301321309021525
       0.4700234646276009
       0.4626604367791991
       0.4763075992475332
       0.4170781912191196
       0.4125310020492217
       0.4803060318098297
       0.4666640975156198
       0.4548017216654907
       0.4211515482426925
       0.4726063770342617
       0.4507386695825760
       0.3879217608633888
       0.5107116722826907
       0.4791865330650321
       0.4689835894415598
       0.4788775225758875
       0.4797308711815224
       0.4785711615509231
       0.4028807309886505
       0.4939945449648666
       0.4794009064559776
       0.4190710262761888
       0.4186635581210875
       0.4142436895135971
       0.4688553868398267
       0.3757460809536036
       0.4815634782795593
       0.4953733415848797
       0.4808248549987546
       0.3920842462266095
       0.4523077679610981
       0.4690133653623476
       0.4515022637274764
       0.4780558600324901
       0.4514861386954357
       0.4300812215150475
       0.4815009602943296
       0.4558436069010696
       0.4736405663648696
       0.4539119948492123
       0.4992766981120796
       0.4835202658521632
       0.5195382063167986
       0.4353073153303428
       0.4731894771507122
       0.4640304398788697
       0.4290899541667475
       0.4869369035948267
       0.4836319110765942
       0.4826778780965956
       0.4626102134610675
       0.3811161538247435
       0.4782338642086009
       0.4093305293857551
       0.4735168729133078
       0.4806813616873127
       0.4724176511173113
       0.3613907564334322
       0.4309690372216213
       0.4223621528028365
       0.4686090864307795
       0.4799699779713856
       0.4805130353769365
       0.4556304581904044
       0.4807946344252190
       0.4825464445738405
       0.3915549317686309
       0.4629309651919527
       0.4644354898304152
       0.4707931122535584
       0.4844342057014256
       0.4800271340975472
       0.4753199315121156
       0.4527163705895496
       0.4465930912101694
       0.4204210115044087
       0.4494441612184458
       0.4511540470221885
       0.5356032310031088
       0.4657434046678530
       0.4724055789049167
       0.4684194603593053
       0.4722955339284118
       0.4760599914625678
       0.4723155674793499
       0.4717431385834844
       0.4122681923217493
       0.4583484815054809
       0.4475039644512830
       0.3908943707845417
       0.4801023912223701
       0.3943442478357089
       0.4619519499464024
       0.4543306613660844
       0.4791287349521270
       0.3822578882167091
       0.4556348194083297
       0.4310070663270772
       0.4232234386234525
       0.4776032633136949
       0.4691615252665605
       0.4437261551830592
       0.4020975709183899
       0.4671939432164489
       0.4940542561506907
       0.5135558181117282
       0.4563792290715536
       0.4565737571449173
       0.5092742470057704
       0.4734032354557431
       0.4908429203994276
       0.4633859052240371
       0.4742728921060967
       0.4402281695386382
       0.4836222776355222
       0.4884999943926331
       0.3926675703112747
       0.4723277922281774
       0.4569139244393334
       0.4781430671181507
       0.4818794140684962
       0.4783273759269690
       0.4086631025632859
       0.4686884124151902
       0.4818531764859952
       0.4997964738472142
       0.4649661637246236
       0.4864113721111517
       0.4854330317864553
       0.4574546956017107
       0.4853823602854418
       0.3789718865435789
       0.4791807350322402
       0.4677979435355356
       0.4551240692835842
       0.4888256139768832
       0.4852950382975034
       0.4781491644898735
       0.4863584635434174
       0.4585715802454809
       0.4780185330357651
       0.4796540473579812
       0.4731418511898193
       0.4777598490263933
       0.4954412827211399
       0.4815703143324150
       0.4909195100103185
       0.4958971777020282
       0.4333456559537752
       0.4159471511860723
       0.4830411134786777
       0.4702693904280154
       0.4568021866370077
       0.4154649928858030
       0.4743058155386001
       0.4485316987157982
       0.4213860992881475
       0.4560542759305815
       0.4816703275971410
       0.3947534060112796
       0.4902083782955907
       0.4744377257667545
       0.4359373771652720
       0.5102800117335574
       0.4829695662819971
       0.4647256517201985
       0.4756397302683386
       0.4584644233969937
       0.4800872360550784
       0.4812128465389986
       0.3715574677537997
       0.4934982969904924
       0.4757468470999610
       0.4694511108703226
       0.4895656502231620
       0.4402258059609719
       0.4214000266400360
       0.4908558278236657
       0.4821965886678608
       0.5401421160206087
       0.5024785421356557
       0.4661921621907274
       0.4944505607350935
       0.4433434243400582
       0.5011246588452778
       0.3937037373459914
       0.4774760482544431
       0.4769122749835775
       0.4387737416445888
       0.4620439290409785
       0.4758384865283800
       0.4857049440016308
       0.4770842189697006
       0.4854238336393610
       0.3940374555604860
       0.5050228821164767
       0.4613798778430893
       0.4776029970741530
       0.4320838390163086
       0.4700732687868792
       0.4788153013647622
       0.4678301222960706
       0.4955489970366386
       0.4688559786623760
       0.4024757868503310
       0.4894816623666994
       0.4442142179911425
       0.4745101962880384
       0.4789491890173372
       0.4685987989458799
       0.4535861135011126
       0.4844585269074384
       0.4719449579663256
       0.4759477923171735
       0.4105329586143422
       0.4912474577650746
       0.4144090538273655
       0.4850643070116445
       0.4311920764404339
       0.4682087165393661
       0.4702009328131989
       0.4863553451723142
       0.4831918177740023
       0.4620780332020499
       0.4484108447586209
       0.4083437118988783
       0.4384744682382963
       0.4966833801580832
       0.5031780892863443
       0.4403043228694274
       0.4888841918433394
       0.4870586942004437
       0.4727879806127410
       0.3668225620767484
       0.4047004533332069
       0.4847626814776254
       0.4936903151334344
       0.4960536308274978
       0.4896586561743331
       0.4796693819761022
       0.4009031365751384
       0.4675913963834104
       0.3916267855798803
       0.4824312897014795
       0.4856379109989317
       0.3825625771914847
       0.4410845432066665
       0.4793184181493156
       0.4783018639827089
       0.4893233438334053
       0.4812712339710644
       0.4804073149624121
       0.4966781493943779
       0.4785621472713777
       0.3584567050515755
       0.4696582722361960
       0.3983386918039979
       0.4781169050461349
       0.4578722054028279
       0.4795750240488051
       0.4483175988717146
       0.4711350165135654
       0.4683942761686367
       0.4472292416316219
       0.4263011312481058
       0.4866848350852574
       0.4193129424632522
       0.4538206260708679
       0.4545140589470368
       0.4797236150227151
       0.4599882248473051
       0.4886842644851958
       0.4773513016039816
       0.4835219106751864
       0.4581840947477026
       0.3836245846197106
       0.4726267549747350
       0.4516143013213249
       0.4699666600588219
       0.4795294007995397
       0.4989601561535336
       0.4916116637748870
       0.4581368869326649
       0.4805707913020318
       0.4843027227127255
       0.4963170071509239
       0.4151772853737575
       0.4790420802949004
       0.4409999729739877
       0.4277943899586800
       0.4721874670292338
       0.5297492501587039
       0.4917363390954865
       0.4953715339968786
       0.3958871896148863
       0.4568510259575546
       0.4727124588950766
       0.4603754286171118
       0.4942114524700181
       0.4825570600175128
       0.4791609023187089
       0.4758751073225738
       0.4044179327395893
       0.4459229326335120
       0.4605010812499484
       0.4939944028184105
       0.4797595386831600
       0.4857913584698801
       0.4917423500745700
       0.3877795274912785
       0.4558903148264790
       0.4777691838280975
       0.4226131354336386
       0.4811243340584353
       0.4250011426966785
       0.4867908045423233
       0.5442130929475308
       0.4685696021360817
       0.4084114929998642
       0.4834794944462351
       0.4245693859436053
       0.4791203529505212
       0.4862612382086270
       0.4800064327447114
       0.4931196050389076
       0.4604695579254296
       0.4301398384990275
       0.4818421904277143
       0.4333155110703368
       0.4279877669955066
       0.3783770175371650
       0.4731427449090366
       0.4602996809059910
       0.4681045752569689
       0.4636085572248308
       0.4655814797417167
       0.4483428273211090
       0.4792435496779551
       0.4670870477101928
       0.3926052726579886
       0.4881200712784319
       0.4060769009631797
       0.4710745461411265
       0.3648568495890743
       0.4534324300130930
       0.4665516261946128
       0.4684874218818120
       0.4789101919144194
       0.4920644266320698
       0.4336570366027493
       0.4415204242838863
       0.4561348561468169
       0.4512607412670284
       0.4482591961410581
       0.4711575082365866
       0.4037437215037999
       0.4067150698723231
       0.3871682413498641
       0.3736239968576865
       0.4902801452794570