# vtk DataFile Version 3.0
GASDIN data file
ASCII
DATASET UNSTRUCTURED_GRID
POINTS 33802 double
0.000000 0.000000 0.000000
0.000600 -0.003200 0.000000
0.000600 0.003200 0.000000
0.002400 -0.006600 0.000000
0.002400 0.006400 0.000000
0.005400 -0.009600 0.000000
0.005400 0.009500 0.000000
0.009600 -0.012700 0.000000
0.009600 0.012700 0.000000
0.015000 -0.015800 0.000000
0.015000 0.015800 0.000000
0.021500 -0.018800 0.000000
0.021500 0.018800 0.000000
0.029200 -0.021800 0.000000
0.029200 0.021600 0.000000
0.038100 -0.024700 0.000000
0.038100 0.024500 0.000000
0.048000 -0.027600 0.000000
0.048000 0.027300 0.000000
0.059000 -0.030400 0.000000
0.059000 0.030000 0.000000
0.071100 -0.033200 0.000000
0.071100 0.032800 0.000000
0.084300 -0.035800 0.000000
0.084300 0.035500 0.000000
0.098400 -0.038400 0.000000
0.098400 0.038200 0.000000
0.113500 -0.040900 0.000000
0.113500 0.040700 0.000000
0.129500 -0.043300 0.000000
0.129500 0.043200 0.000000
0.146500 -0.045600 0.000000
0.146500 0.045600 0.000000
0.164200 -0.047800 0.000000
0.164200 0.047800 0.000000
0.182800 -0.049800 0.000000
0.182800 0.049900 0.000000
0.202200 -0.051700 0.000000
0.202200 0.051900 0.000000
0.222200 -0.053400 0.000000
0.222200 0.053800 0.000000
0.243000 -0.055000 0.000000
0.243000 0.055600 0.000000
0.264300 -0.056400 0.000000
0.264300 0.057100 0.000000
0.286200 -0.057500 0.000000
0.286200 0.058500 0.000000
0.308700 -0.058400 0.000000
0.308700 0.059700 0.000000
0.331600 -0.059000 0.000000
0.331600 0.060700 0.000000
0.354900 -0.059200 0.000000
0.354900 0.061600 0.000000
0.378500 -0.058900 0.000000
0.378500 0.062200 0.000000
0.402500 -0.058200 0.000000
0.402500 0.062600 0.000000
0.426600 -0.056900 0.000000
0.426600 0.062900 0.000000
0.451000 -0.055200 0.000000
0.451000 0.062900 0.000000
0.475500 -0.053000 0.000000
0.475500 0.062600 0.000000
0.500000 -0.050400 0.000000
0.500000 0.062100 0.000000
0.524500 -0.047600 0.000000
0.524500 0.061400 0.000000
0.549000 -0.044500 0.000000
0.549000 0.060300 0.000000
0.573400 -0.041300 0.000000
0.573400 0.059000 0.000000
0.597500 -0.037900 0.000000
0.597500 0.057300 0.000000
0.621500 -0.034600 0.000000
0.621500 0.055500 0.000000
0.645100 -0.031100 0.000000
0.645100 0.053400 0.000000
0.668500 -0.027700 0.000000
0.668500 0.051100 0.000000
0.691300 -0.024400 0.000000
0.691300 0.048600 0.000000
0.713800 -0.021200 0.000000
0.713800 0.046100 0.000000
0.735700 -0.018100 0.000000
0.735700 0.043400 0.000000
0.757100 -0.015200 0.000000
0.757100 0.040800 0.000000
0.777800 -0.012600 0.000000
0.777800 0.038000 0.000000
0.797900 -0.010100 0.000000
0.797900 0.035100 0.000000
0.817200 -0.007900 0.000000
0.817200 0.032300 0.000000
0.835800 -0.005900 0.000000
0.835800 0.029500 0.000000
0.853600 -0.004200 0.000000
0.853600 0.026700 0.000000
0.870500 -0.002700 0.000000
0.870500 0.024000 0.000000
0.886500 -0.001500 0.000000
0.886500 0.021300 0.000000
0.901600 -0.000500 0.000000
0.901600 0.018700 0.000000
0.915700 0.000300 0.000000
0.915700 0.016300 0.000000
0.928900 0.000800 0.000000
0.928900 0.013900 0.000000
0.941000 0.001100 0.000000
0.941000 0.011700 0.000000
0.952000 0.001300 0.000000
0.952000 0.009600 0.000000
0.961900 0.001300 0.000000
0.961900 0.007800 0.000000
0.970800 0.001100 0.000000
0.970800 0.006100 0.000000
0.978500 0.000900 0.000000
0.978500 0.004600 0.000000
0.985000 0.000700 0.000000
0.985000 0.003300 0.000000
0.990400 0.000500 0.000000
0.990400 0.002200 0.000000
0.994600 0.000300 0.000000
0.994600 0.001300 0.000000
0.997600 0.000100 0.000000
0.997600 0.000700 0.000000
0.999400 0.000000 0.000000
0.999400 0.000300 0.000000
1.000000 0.000000 0.000000
-1.500000 -1.500000 0.000000
2.000000 -1.500000 0.000000
2.000000 1.500000 0.000000
-1.500000 1.500000 0.000000
2.000000 -1.500000 0.005000
2.000000 1.500000 0.005000
-1.500000 1.500000 0.005000
-1.500000 -1.500000 0.005000
1.000000 0.000000 0.005000
0.999400 0.000300 0.005000
0.997600 0.000700 0.005000
0.994600 0.001300 0.005000
0.990400 0.002200 0.005000
0.985000 0.003300 0.005000
0.978500 0.004600 0.005000
0.970800 0.006100 0.005000
0.961900 0.007800 0.005000
0.952000 0.009600 0.005000
0.941000 0.011700 0.005000
0.928900 0.013900 0.005000
0.915700 0.016300 0.005000
0.901600 0.018700 0.005000
0.886500 0.021300 0.005000
0.870500 0.024000 0.005000
0.853600 0.026700 0.005000
0.835800 0.029500 0.005000
0.817200 0.032300 0.005000
0.797900 0.035100 0.005000
0.777800 0.038000 0.005000
0.757100 0.040800 0.005000
0.735700 0.043400 0.005000
0.713800 0.046100 0.005000
0.691300 0.048600 0.005000
0.668500 0.051100 0.005000
0.645100 0.053400 0.005000
0.621500 0.055500 0.005000
0.597500 0.057300 0.005000
0.573400 0.059000 0.005000
0.549000 0.060300 0.005000
0.524500 0.061400 0.005000
0.500000 0.062100 0.005000
0.475500 0.062600 0.005000
0.451000 0.062900 0.005000
0.426600 0.062900 0.005000
0.402500 0.062600 0.005000
0.378500 0.062200 0.005000
0.354900 0.061600 0.005000
0.331600 0.060700 0.005000
0.308700 0.059700 0.005000
0.286200 0.058500 0.005000
0.264300 0.057100 0.005000
0.243000 0.055600 0.005000
0.222200 0.053800 0.005000
0.202200 0.051900 0.005000
0.182800 0.049900 0.005000
0.164200 0.047800 0.005000
0.146500 0.045600 0.005000
0.129500 0.043200 0.005000
0.113500 0.040700 0.005000
0.098400 0.038200 0.005000
0.084300 0.035500 0.005000
0.071100 0.032800 0.005000
0.059000 0.030000 0.005000
0.048000 0.027300 0.005000
0.038100 0.024500 0.005000
0.029200 0.021600 0.005000
0.021500 0.018800 0.005000
0.015000 0.015800 0.005000
0.009600 0.012700 0.005000
0.005400 0.009500 0.005000
0.002400 0.006400 0.005000
0.000600 0.003200 0.005000
0.000000 0.000000 0.005000
0.000600 -0.003200 0.005000
0.002400 -0.006600 0.005000
0.005400 -0.009600 0.005000
0.009600 -0.012700 0.005000
0.015000 -0.015800 0.005000
0.021500 -0.018800 0.005000
0.029200 -0.021800 0.005000
0.038100 -0.024700 0.005000
0.048000 -0.027600 0.005000
0.059000 -0.030400 0.005000
0.071100 -0.033200 0.005000
0.084300 -0.035800 0.005000
0.098400 -0.038400 0.005000
0.113500 -0.040900 0.005000
0.129500 -0.043300 0.005000
0.146500 -0.045600 0.005000
0.164200 -0.047800 0.005000
0.182800 -0.049800 0.005000
0.202200 -0.051700 0.005000
0.222200 -0.053400 0.005000
0.243000 -0.055000 0.005000
0.264300 -0.056400 0.005000
0.286200 -0.057500 0.005000
0.308700 -0.058400 0.005000
0.331600 -0.059000 0.005000
0.354900 -0.059200 0.005000
0.378500 -0.058900 0.005000
0.402500 -0.058200 0.005000
0.426600 -0.056900 0.005000
0.451000 -0.055200 0.005000
0.475500 -0.053000 0.005000
0.500000 -0.050400 0.005000
0.524500 -0.047600 0.005000
0.549000 -0.044500 0.005000
0.573400 -0.041300 0.005000
0.597500 -0.037900 0.005000
0.621500 -0.034600 0.005000
0.645100 -0.031100 0.005000
0.668500 -0.027700 0.005000
0.691300 -0.024400 0.005000
0.713800 -0.021200 0.005000
0.735700 -0.018100 0.005000
0.757100 -0.015200 0.005000
0.777800 -0.012600 0.005000
0.797900 -0.010100 0.005000
0.817200 -0.007900 0.005000
0.835800 -0.005900 0.005000
0.853600 -0.004200 0.005000
0.870500 -0.002700 0.005000
0.886500 -0.001500 0.005000
0.901600 -0.000500 0.005000
0.915700 0.000300 0.005000
0.928900 0.000800 0.005000
0.941000 0.001100 0.005000
0.952000 0.001300 0.005000
0.961900 0.001300 0.005000
0.970800 0.001100 0.005000
0.978500 0.000900 0.005000
0.985000 0.000700 0.005000
0.990400 0.000500 0.005000
0.994600 0.000300 0.005000
0.997600 0.000100 0.005000
0.999400 0.000000 0.005000
1.940619 1.500000 0.000000
1.880735 1.500000 0.000000
1.820342 1.500000 0.000000
1.759437 1.500000 0.000000
1.698016 1.500000 0.000000
1.636073 1.500000 0.000000
1.573606 1.500000 0.000000
1.510608 1.500000 0.000000
1.447075 1.500000 0.000000
1.383004 1.500000 0.000000
1.318389 1.500000 0.000000
1.253227 1.500000 0.000000
1.187511 1.500000 0.000000
1.121238 1.500000 0.000000
1.054403 1.500000 0.000000
0.987000 1.500000 0.000000
0.919026 1.500000 0.000000
0.850476 1.500000 0.000000
0.781343 1.500000 0.000000
0.711625 1.500000 0.000000
0.641315 1.500000 0.000000
0.570408 1.500000 0.000000
0.498900 1.500000 0.000000
0.426786 1.500000 0.000000
0.354060 1.500000 0.000000
0.280716 1.500000 0.000000
0.206751 1.500000 0.000000
0.132158 1.500000 0.000000
0.056932 1.500000 0.000000
-0.018931 1.500000 0.000000
-0.095439 1.500000 0.000000
-0.172595 1.500000 0.000000
-0.250406 1.500000 0.000000
-0.328877 1.500000 0.000000
-0.408013 1.500000 0.000000
-0.487821 1.500000 0.000000
-0.568306 1.500000 0.000000
-0.649474 1.500000 0.000000
-0.731330 1.500000 0.000000
-0.813880 1.500000 0.000000
-0.897131 1.500000 0.000000
-0.981088 1.500000 0.000000
-1.065757 1.500000 0.000000
-1.151145 1.500000 0.000000
-1.237257 1.500000 0.000000
-1.324099 1.500000 0.000000
-1.411678 1.500000 0.000000
-1.500000 1.411765 0.000000
-1.500000 1.323529 0.000000
-1.500000 1.235294 0.000000
-1.500000 1.147059 0.000000
-1.500000 1.058824 0.000000
-1.500000 0.970588 0.000000
-1.500000 0.882353 0.000000
-1.500000 0.794118 0.000000
-1.500000 0.705882 0.000000
-1.500000 0.617647 0.000000
-1.500000 0.529412 0.000000
-1.500000 0.441176 0.000000
-1.500000 0.352941 0.000000
-1.500000 0.264706 0.000000
-1.500000 0.176471 0.000000
-1.500000 0.088235 0.000000
-1.500000 0.000000 0.000000
-1.500000 -0.088235 0.000000
-1.500000 -0.176471 0.000000
-1.500000 -0.264706 0.000000
-1.500000 -0.352941 0.000000
-1.500000 -0.441176 0.000000
-1.500000 -0.529412 0.000000
-1.500000 -0.617647 0.000000
-1.500000 -0.705882 0.000000
-1.500000 -0.794118 0.000000
-1.500000 -0.882353 0.000000
-1.500000 -0.970588 0.000000
-1.500000 -1.058824 0.000000
-1.500000 -1.147059 0.000000
-1.500000 -1.235294 0.000000
-1.500000 -1.323529 0.000000
-1.500000 -1.411765 0.000000
-1.411678 -1.500000 0.000000
-1.324099 -1.500000 0.000000
-1.237257 -1.500000 0.000000
-1.151145 -1.500000 0.000000
-1.065757 -1.500000 0.000000
-0.981088 -1.500000 0.000000
-0.897131 -1.500000 0.000000
-0.813880 -1.500000 0.000000
-0.731330 -1.500000 0.000000
-0.649474 -1.500000 0.000000
-0.568306 -1.500000 0.000000
-0.487821 -1.500000 0.000000
-0.408013 -1.500000 0.000000
-0.328877 -1.500000 0.000000
-0.250406 -1.500000 0.000000
[...]
CELL_DATA 18477
SCALARS Density double 1
LOOKUP_TABLE default
       0.4522507501727996
       0.4144865118888615
       0.4439061938778118
       0.4155158706318621
       0.3275243402204299
       0.4285568994702271
       0.4484196804067516
       0.4048751459634937
       0.4473806655404445
       0.4671383495984652
       0.4615094599494810
       0.4656193139196031
       0.4235173656186072
       0.4222042722768856
       0.3298673784857750
       0.4282334188881345
       0.4609274386229341
       0.3653824276437278
       0.4338577396037261
       0.4782200188630120
       0.4956625950653072
       0.4413331895210953
       0.4278626428122075
       0.3905313415151104
       0.4980594995647403
       0.4585217058647700
       0.4783071929227631
       0.4643542652161642
       0.4393877377943008
       0.3858291900764899
       0.3860089393157378
       0.4897855792989084
       0.4382938142507802
       0.3978142467210517
       0.4273347858922221
       0.4171384414951171
       0.4801924202419846
       0.4590398152493789
       0.3849717996270827
       0.4694048256319561
       0.3656327555465265
       0.4099012343609905
       0.4006073908125914
       0.4967226004496542
       0.4645594834137953
       0.4600388952705547
       0.4371315172691494
       0.4024639548071712
       0.4688999996660232
       0.4613572710846566
       0.4667058453235439
       0.4404113755990269
       0.4567491769381486
       0.4229674385822254
       0.3485913603794873
       0.4178822770863928
       0.4723262593031805
       0.4615224407226650
       0.4589493729924433
       0.4138475069037908
       0.4386133741969541
       0.4185711889503176
       0.3612348002267157
       0.4771791566514741
       0.4614240625228148
       0.4515954349562000
       0.4674219477791717
       0.4497792298062756
       0.4609346978096250
       0.4314244714088472
       0.4579306934471570
       0.4465530956905647
       0.3653675584594336
       0.4685219475178801
       0.3494803303666584
       0.4698771503137517
       0.4126739307553699
       0.4588878797871105
       0.4406104706028402
       0.4188805016770403
       0.4304469249560187
       0.4819091567986880
       0.4620843552661445
       0.3346652517796949
       0.4202064342789958
       0.4710477484770876
       0.4410459370480804
       0.4736013028828955
       0.4444608423834725
       0.4458922447394715
       0.4214117754098134
       0.4446502166473665
       0.4870601360182763
       0.4346144603160131
       0.4581219013164888
       0.4785749846389311
       0.4495373795499882
       0.4534791910792036
       0.4447544091761454
       0.3309590315408662
       0.4453129413326407
       0.4480355440183321
       0.4572068585593200
       0.4319941388443636
       0.4604993454514847
       0.4176068406064865
       0.4763230006421627
       0.4214629870580677
       0.4358357983093645
       0.4515519275745158
       0.4455936869932749
       0.4501119114640289
       0.4679458774457882
       0.4731338735589448
       0.4691145781432025
       0.4125103451111403
       0.4252262627192957
       0.4593667441891318
       0.4540114350765171
       0.4707556132343286
       0.4641137734034456
       0.4771949461917325
       0.4620965778213290
       0.4606283469974129
       0.5041656528275908
       0.4266397283111497
       0.4260284227441393
       0.3426351347129635
       0.4156183311216485
       0.3367437314451051
       0.4510878155473554
       0.4239054105314937
       0.3553795047308154
       0.4641842211801423
       0.4708567976709508
       0.4816126921034067
       0.4600739026245441
       0.3269249045789825
       0.3812535492541732
       0.4528469605097329
       0.4482659578087898
       0.4702948863393532
       0.4238101270996694
       0.4826142286152783
       0.4601866258536266
       0.4294497061328522
       0.4599062394921178
       0.4642168365716944
       0.3285287166753772
       0.4331886258898699
       0.4411331231673201
       0.3656391792527937
       0.4305392090246619
       0.3667901401900295
       0.4518166555256493
       0.4489164264206327
       0.3900182773351158
       0.3449258207619460
       0.4557402834108096
       0.4655224964067680
       0.4673612986108137
       0.4580920461101384
       0.4837224851214910
       0.4731561214388469
       0.4674576504567934
       0.4584762347586568
       0.4219042744850315
       0.3444610276981521
       0.4600300152114997
       0.4261422965672165
       0.4699263550596153
       0.5021313880619567
       0.4559855867980373
       0.5147241439232579
       0.4671115255333640
       0.4650920987954401
       0.4354625949437854
       0.4575089949387824
       0.4050877166540196
       0.3927065693384235
       0.3967342064475909
       0.4489645983809654
       0.3345966431761437
       0.4431423423752222
       0.4618322702340470
       0.3948567461709104
       0.4850572233248019
       0.4558857792935955
       0.4675065598640125
       0.4677177048840880
       0.4557506381742649
       0.4212047554651506
       0.3556434170468118
       0.4378600794009691
       0.4852092934209643
       0.4573160481242291
       0.4396690311443547
       0.4480206707851265
       0.4313318330029201
       0.4394468006086120
       0.4289169347766120
       0.4617130568211280
       0.4744892000392484
       0.3606632741690468
       0.4573907105604216
       0.4604808069377004
       0.4729025698921711
       0.4717997541225517
       0.4616764191342725
       0.4551486055711401
       0.4919197102144051
       0.4553467183914222
       0.4428068129500479
       0.3376734022934335
       0.4329109613425087
       0.3507087832194748
       0.3945290731662185
       0.3364066118904094
       0.4406215847075470
       0.4497110502070440
       0.4751844349314888
       0.4755860739282277
       0.3392285817005640
       0.4557779899482435
       0.3449971202450213
       0.4473059584159467
       0.3265943183305868
       0.4679386632774138
       0.4482510618299645
       0.4668139738198858
       0.4282401781522903
       0.4670117488780593
       0.4691508324125412
       0.4559838774037046
       0.3231588555130179
       0.4767970826245279
       0.3881573634187209
       0.4442840508263053
       0.3377659625507835
       0.4625319955569647
       0.3623989076821090
       0.4649620028760187
       0.4294000067233929
       0.4468461408689370
       0.4502134067788961
       0.4657529229790751
       0.4732995611899976
       0.4745849216229739
       0.3752726564158437
       0.3510620121055014
       0.4552325749954780
       0.4596446345616643
       0.3449082958696074
       0.4188062499841301
       0.4484295025409494
       0.4535254032882259
       0.4582974737433083
       0.4129080685322479
       0.4386417195689273
       0.4574313334313722
       0.4488494504849642
       0.4619684542445410
       0.3681990116004958
       0.4628544637787412
       0.4629077221839616
       0.3701964316287367
       0.4491533990470383
       0.4156566088582469
       0.4583088765998323
       0.4620959984187911
       0.4776588639301149
       0.5252591612469852
       0.4243389996091266
       0.3564107584481743
       0.4417071954733672
       0.4095288332908138
       0.4798848488841127
       0.4595692751812351
       0.4176737281033487
       0.4502254729487533
       0.4441722374134661
       0.3353733684473504
       0.4718304428395856
       0.4571241065063958
       0.4363056071741837
       0.4596793459653201
       0.4701236820658603
       0.4576016817379144
       0.4107365445689564
       0.4377070615696165
       0.3278702577201079
       0.4152756678284907
       0.5079025772216620
       0.4720994271627689
       0.4585394432140699
       0.4440005753425217
       0.4592972619462082
       0.4569912315336303
       0.3522056922153208
       0.4275852236315408
       0.5193751451337407
       0.4284596425631085
       0.4622812633101605
       0.4682187125882247
       0.4507693953445097
       0.4583836942955072
       0.4745971730978685
       0.4535396405272956
       0.3283974140522384
       0.4768127738879558
       0.4659238313368634
       0.3620008879329800
       0.4563153398405982
       0.4604613132265887
       0.4389356413182807
       0.4598876953386600
       0.4750968957687121
       0.5079352593439346
       0.4794622326032980
       0.4637022537156157
       0.5048737782901729
       0.3690230039597739
       0.4286850214832901
       0.4792059543326499
       0.4629998168646896
       0.4269479012951351
       0.4537787797232172
       0.4761239729961654
       0.4509082510310697
       0.4386151591315713
       0.4570762639971955
       0.4487437835078319
       0.4376130726508446
       0.4118288577997729
       0.4604204047233632
       0.4684331529567685
       0.4643082717152504
       0.4330190880605769
       0.4015390411296200
       0.4825881595227936
       0.4382434406810510
       0.4816194701680268
       0.4605953904471177
       0.4592585169190936
       0.3963796682040261
       0.4595997246787146
       0.4295414814781591
       0.3892938405124751
       0.4498981850164724
       0.4549865751826466
       0.4259012055472483
       0.4655106713427468
       0.3235780860293814
       0.4576307534398183
       0.4430921048008971
       0.4064807050422278
       0.4468215190462346
       0.4584303850083452
       0.4464230885052649
       0.3448422704695964
       0.5050282703664610
       0.4701917749464382
       0.4489997841409979
       0.4607290481377670
       0.3864228651965044
       0.4852377877622883
       0.4609583704880187
       0.3302336231111576
       0.4644818041064124
       0.4616737425686025
       0.4373462607990251
       0.4398685845815640
       0.4017917466216553
       0.4614304172282821
       0.4782793037395474
       0.4499997232889582
       0.4817141099137121
       0.4418639713532624
       0.4495026286360115
       0.4316795889593732
       0.4020668922403253
       0.3294451582865077
       0.3733120958079499
       0.4461532505526245
       0.4340165923062799
       0.4360949380405389
       0.3663987612806525
       0.4593653927557865
       0.4284072101630858
       0.3256890167761395
       0.3949508578873461
       0.4338180224942999
       0.4398244894322243
       0.3701386005870634
       0.4723399484391184
       0.4661648988976238
       0.4562911970371354
       0.4174638592816223
       0.3908262333719187
       0.4303491513245327
       0.3944999984724469
       0.4190043739614365
       0.4115272870798209
       0.4132094251093537
       0.4455311648463356
       0.5160136489573042
       0.4476231403031083
       0.4400675450928663
       0.4547711581614649
       0.3792101339036071
       0.3680886214356889
       0.4605692438367531
       0.4448488922112339
       0.4312642855418696
       0.4014273088864756
       0.4500983807449451
       0.4233446208568385
       0.3345289341883783
       0.4950289689905922
       0.4582209499484738
       0.4481236989715545
       0.4591349522972397
       0.4603325296590299
       0.4586125402926094
       0.3587651139299738
       0.4763456470554269
       0.4590572466677744
       0.3841307793517256
       0.3847586848950669
       0.3679623495731152
       0.4475121329194596
       0.3222254674540874
       0.4611069055653747
       0.4782051364479133
       0.4612736019599830
       0.3391637572195690
       0.4234687797352834
       0.4476938138888298
       0.4250770951774941
       0.4579966004699803
       0.4203128201604557
       0.3884734149539135
       0.4611114390129115
       0.4317578151102356
       0.4522323419090549
       0.4295109509033450
       0.4821498833363160
       0.4648887394120537
       0.5045452584044741
       0.4045072969936974
       0.4546440608959751
       0.4398159969006487
       0.3903814968278174
       0.4684593818541731
       0.4640981916759278
       0.4629896677918124
       0.4392304357859129
       0.3256471637164892
       0.4574770519743976
       0.3607828695352020
       0.4528822279241255
       0.4612125685979854
       0.4520412227141741
       0.3358641553261688
       0.4187900280377418
       0.3883914274066313
       0.4451835301430896
       0.4596014894648613
       0.4607918384794602
       0.4300270982300828
       0.4613433456922961
       0.4632857751057907
       0.3387836751516246
       0.4386129145375833
       0.4431162394916726
       0.4477471960509352
       0.4655025816690667
       0.4603962583789828
       0.4548301751886450
       0.4299690203219690
       0.4216015127034874
       0.3867095608763119
       0.4381560947006642
       0.4246721902105353
       0.5256132812606030
       0.4450508055973028
       0.4522315838150860
       0.4458966865345831
       0.4498351048919050
       0.4551129686409230
       0.4516254759593356
       0.4507149210337135
       0.3719180387091272
       0.4336147566038567
       0.4204917319977617
       0.3411592753901300
       0.4604101037799997
       0.3444348702476112
       0.4384878578324478
       0.4302805492203418
       0.4592430292178273
       0.3580377106668697
       0.4322709806818341
       0.3899634012739540
       0.3819320522997172
       0.4564136673364118
       0.4476700693886401
       0.4160807515959081
       0.3642410679910839
       0.4452692864142153
       0.4761948154086729
       0.4988608770987921
       0.4306855986780971
       0.4325771753166378
       0.4936264776266617
       0.4526249118139804
       0.4728397836179213
       0.4402918472370084
       0.4528454791308884
       0.4118828992427714
       0.4645923345206123
       0.4699050138605120
       0.3396239353004777
       0.4506346170009565
       0.4313203364116362
       0.4608531826676260
       0.4615255089036733
       0.4584249105594684
       0.3652187615530723
       0.4495863493878589
       0.4621021618955327
       0.4827610076154221
       0.4419602358995054
       0.4674192202713771
       0.4662478530912912
       0.4386682740997344
       0.4671753817050947
       0.3240471227732135
       0.4585268088965694
       0.4460853814178024
       0.4325807562678963
       0.4715088430679210
       0.4665503496051188
       0.4582048555602778
       0.4677161456651781
       0.4326520555547042
       0.4581496120847700
       0.4604439481268591
       0.4505861371206638
       0.4590579921797240
       0.4778301357293552
       0.4624178229693335
       0.4727532727611608
       0.4776878105957302
       0.3975032720646200
       0.3947460371508249
       0.4642782190382433
       0.4491808873665229
       0.4337472549199503
       0.3783838450626277
       0.4541584483399735
       0.4418465612839422
       0.3834553857715211
       0.4303981009823759
       0.4611501237014785
       0.3475570062978656
       0.4720409845165074
       0.4523588636322783
       0.4083712428287749
       0.4932836818883604
       0.4633225154422455
       0.4433805414498012
       0.4560843665115140
       0.4338869489039407
       0.4598443811714504
       0.4618273044884351
       0.3303971977948622
       0.4756506259425100
       0.4553115278900854
       0.4463994794914383
       0.4710181858093140
       0.4122584049821571
       0.3762641209038835
       0.4728085649530105
       0.4628549859416384
       0.5275023099402619
       0.4854233695474739
       0.4428556758361313
       0.4768622321571550
       0.4097658331401627
       0.4842047733106785
       0.3409710965024119
       0.4580165500342396
       0.4555881689688784
       0.4022002815626238
       0.4368305552470433
       0.4554371681464857
       0.4665502784178287
       0.4571954195576142
       0.4662690489360861
       0.3456995346145832
       0.4891036348040386
       0.4381470936952828
       0.4574220620360381
       0.4010687853957640
       0.4499755939473473
       0.4580160683350302
       0.4469084293916342
       0.4776242630720000
       0.4473188405576364
       0.3595580181620683
       0.4709205202058631
       0.4184304687655686
       0.4560832059315786
       0.4589903799429734
       0.4470180174187566
       0.4277281232277881
       0.4665690971213540
       0.4540267834293861
       0.4548100059184001
       0.3644352216705043
       0.4722559620330493
       0.3794711990197593
       0.4662014313614697
       0.3952468977833616
       0.4465715771509341
       0.4492249102388258
       0.4676085001821545
       0.4636609498042850
       0.4380130270913482
       0.4156217964755181
       0.3597459576750398
       0.4095516140579797
       0.4793414225666417
       0.4864468600288894
       0.4128363267822028
       0.4707087127930285
       0.4687792495068172
       0.4507958377046976
       0.3311777580627848
       0.3534457338682060
       0.4655681742096766
       0.4760183495261336
       0.4786303032368059
       0.4720233265904353
       0.4594713131542028
       0.3488934323278133
       0.4466046311413847
       0.3387767159725835
       0.4629922029044661
       0.4668711153215458
       0.3369852417839941
       0.4148342110647152
       0.4593367922293606
       0.4582690936207909
       0.4711297635349567
       0.4611933178383124
       0.4601737393978384
       0.4792626127900246
       0.4586766973799876
       0.3263189796544127
       0.4471250011405274
       0.3632381525750933
       0.4581430966254620
       0.4335858822044593
       0.4597819328361300
       0.4156704009710921
       0.4481300764062309
       0.4456261473030444
       0.4153387169484632
       0.3832546261799636
       0.4676692437823500
       0.3728291068037753
       0.4237856259813580
       0.4309240774247895
       0.4599536626233398
       0.4376204268040074
       0.4703097055120188
       0.4561200059313301
       0.4639677104719577
       0.4337753826310010
       0.3339693968239079
       0.4500190605543790
       0.4277280585473157
       0.4487597749835517
       0.4598891717501180
       0.4887433932893424
       0.4738494771001958
       0.4340120714467431
       0.4664202900273142
       0.4648924771739693
       0.4789584411032771
       0.3671588233138772
       0.4594426342623316
       0.4142668639231770
       0.3850518509455731
       0.4500277919607834
       0.5158485031957302
       0.4736084160993369
       0.4779146857978966
       0.3427503231347040
       0.4312258250040391
       0.4510180573157033
       0.4380622735814297
       0.4762452432683383
       0.4632758774959677
       0.4592461109546923
       0.4554617301141570
       0.3607276229890229
       0.4208461832790203
       0.4365095475314039
       0.4765102089376267
       0.4599899956210924
       0.4671409865562208
       0.4738578286790788
       0.3340959130882286
       0.4315542518513107
       0.4576181872497104
       0.3784122859906129
       0.4609180169919672
       0.3812917488341915
       0.4682068636666592
       0.5319977013664171
       0.4450278189007714
       0.3628802242757265
       0.4644413028413587
       0.4044738501149581
       0.4583922069990193
       0.4674362105438603
       0.4599311198046731
       0.4752015594014261
       0.4365527743494031
       0.3888771266768283
       0.4615887218657325
       0.4048322530988816
       0.3910817602456602
       0.3250995448172412
       0.4507829111771903
       0.4359379287170940
       0.4467256357878008
       0.4400962403629104
       0.4430816043849785
       0.4188710527507095
       0.4592673225077889
       0.4461010852726834
       0.3400741300538812
       0.4710799988315751
       0.3556755818922657
       0.4501093662385645
       0.3362443067234288
       0.4298034195205468
       0.4452087230059358
       0.4469719310900656
       0.4584556972292052
       0.4739993987759186
       0.3938108438639992
       0.4235384309137384
       0.4289794115020279
       0.4272075700031756
       0.4192133878694949
       0.4504775882313166
       0.3647019809694163
       0.3593508125518962
       0.3438632047209357
       0.3253896468749413
       0.4721144544801336