# vtk DataFile Version 3.0
GASDIN data file
ASCII
DATASET UNSTRUCTURED_GRID
POINTS 33802 double
0.000000 0.000000 0.000000
0.000600 -0.003200 0.000000
0.000600 0.003200 0.000000
0.002400 -0.006600 0.000000
0.002400 0.006400 0.000000
0.005400 -0.009600 0.000000
0.005400 0.009500 0.000000
0.009600 -0.012700 0.000000
0.009600 0.012700 0.000000
0.015000 -0.015800 0.000000
0.015000 0.015800 0.000000
0.021500 -0.018800 0.000000
0.021500 0.018800 0.000000
0.029200 -0.021800 0.000000
0.029200 0.021600 0.000000
0.038100 -0.024700 0.000000
0.038100 0.024500 0.000000
0.048000 -0.027600 0.000000
0.048000 0.027300 0.000000
0.059000 -0.030400 0.000000
0.059000 0.030000 0.000000
0.071100 -0.033200 0.000000
0.071100 0.032800 0.000000
0.084300 -0.035800 0.000000
0.084300 0.035500 0.000000
0.098400 -0.038400 0.000000
0.098400 0.038200 0.000000
0.113500 -0.040900 0.000000
0.113500 0.040700 0.000000
0.129500 -0.043300 0.000000
0.129500 0.043200 0.000000
0.146500 -0.045600 0.000000
0.146500 0.045600 0.000000
0.164200 -0.047800 0.000000
0.164200 0.047800 0.000000
0.182800 -0.049800 0.000000
0.182800 0.049900 0.000000
0.202200 -0.051700 0.000000
0.202200 0.051900 0.000000
0.222200 -0.053400 0.000000
0.222200 0.053800 0.000000
0.243000 -0.055000 0.000000
0.243000 0.055600 0.000000
0.264300 -0.056400 0.000000
0.264300 0.057100 0.000000
0.286200 -0.057500 0.000000
0.286200 0.058500 0.000000
0.308700 -0.058400 0.000000
0.308700 0.059700 0.000000
0.331600 -0.059000 0.000000
0.331600 0.060700 0.000000
0.354900 -0.059200 0.000000
0.354900 0.061600 0.000000
0.378500 -0.058900 0.000000
0.378500 0.062200 0.000000
0.402500 -0.058200 0.000000
0.402500 0.062600 0.000000
0.426600 -0.056900 0.000000
0.426600 0.062900 0.000000
0.451000 -0.055200 0.000000
0.451000 0.062900 0.000000
0.475500 -0.053000 0.000000
0.475500 0.062600 0.000000
0.500000 -0.050400 0.000000
0.500000 0.062100 0.000000
0.524500 -0.047600 0.000000
0.524500 0.061400 0.000000
0.549000 -0.044500 0.000000
0.549000 0.060300 0.000000
0.573400 -0.041300 0.000000
0.573400 0.059000 0.000000
0.597500 -0.037900 0.000000
0.597500 0.057300 0.000000
0.621500 -0.034600 0.000000
0.621500 0.055500 0.000000
0.645100 -0.031100 0.000000
0.645100 0.053400 0.000000
0.668500 -0.027700 0.000000
0.668500 0.051100 0.000000
0.691300 -0.024400 0.000000
0.691300 0.048600 0.000000
0.713800 -0.021200 0.000000
0.713800 0.046100 0.000000
0.735700 -0.018100 0.000000
0.735700 0.043400 0.000000
0.757100 -0.015200 0.000000
0.757100 0.040800 0.000000
0.777800 -0.012600 0.000000
0.777800 0.038000 0.000000
0.797900 -0.010100 0.000000
0.797900 0.035100 0.000000
0.817200 -0.007900 0.000000
0.817200 0.032300 0.000000
0.835800 -0.005900 0.000000
0.835800 0.029500 0.000000
0.853600 -0.004200 0.000000
0.853600 0.026700 0.000000
0.870500 -0.002700 0.000000
0.870500 0.024000 0.000000
0.886500 -0.001500 0.000000
0.886500 0.021300 0.000000
0.901600 -0.000500 0.000000
0.901600 0.018700 0.000000
0.915700 0.000300 0.000000
0.915700 0.016300 0.000000
0.928900 0.000800 0.000000
0.928900 0.013900 0.000000
0.941000 0.001100 0.000000
0.941000 0.011700 0.000000
0.952000 0.001300 0.000000
0.952000 0.009600 0.000000
0.961900 0.001300 0.000000
0.961900 0.007800 0.000000
0.970800 0.001100 0.000000
0.970800 0.006100 0.000000
0.978500 0.000900 0.000000
0.978500 0.004600 0.000000
0.985000 0.000700 0.000000
0.985000 0.003300 0.000000
0.990400 0.000500 0.000000
0.990400 0.002200 0.000000
0.994600 0.000300 0.000000
0.994600 0.001300 0.000000
0.997600 0.000100 0.000000
0.997600 0.000700 0.000000
0.999400 0.000000 0.000000
0.999400 0.000300 0.000000
1.000000 0.000000 0.000000
-1.500000 -1.500000 0.000000
2.000000 -1.500000 0.000000
2.000000 1.500000 0.000000
-1.500000 1.500000 0.000000
2.000000 -1.500000 0.005000
2.000000 1.500000 0.005000
-1.500000 1.500000 0.005000
-1.500000 -1.500000 0.005000
1.000000 0.000000 0.005000
0.999400 0.000300 0.005000
0.997600 0.000700 0.005000
0.994600 0.001300 0.005000
0.990400 0.002200 0.005000
0.985000 0.003300 0.005000
0.978500 0.004600 0.005000
0.970800 0.006100 0.005000
0.961900 0.007800 0.005000
0.952000 0.009600 0.005000
0.941000 0.011700 0.005000
0.928900 0.013900 0.005000
0.915700 0.016300 0.005000
0.901600 0.018700 0.005000
0.886500 0.021300 0.005000
0.870500 0.024000 0.005000
0.853600 0.026700 0.005000
0.835800 0.029500 0.005000
0.817200 0.032300 0.005000
0.797900 0.035100 0.005000
0.777800 0.038000 0.005000
0.757100 0.040800 0.005000
0.735700 0.043400 0.005000
0.713800 0.046100 0.005000
0.691300 0.048600 0.005000
0.668500 0.051100 0.005000
0.645100 0.053400 0.005000
0.621500 0.055500 0.005000
0.597500 0.057300 0.005000
0.573400 0.059000 0.005000
0.549000 0.060300 0.005000
0.524500 0.061400 0.005000
0.500000 0.062100 0.005000
0.475500 0.062600 0.005000
0.451000 0.062900 0.005000
0.426600 0.062900 0.005000
0.402500 0.062600 0.005000
0.378500 0.062200 0.005000
0.354900 0.061600 0.005000
0.331600 0.060700 0.005000
0.308700 0.059700 0.005000
0.286200 0.058500 0.005000
0.264300 0.057100 0.005000
0.243000 0.055600 0.005000
0.222200 0.053800 0.005000
0.202200 0.051900 0.005000
0.182800 0.049900 0.005000
0.164200 0.047800 0.005000
0.146500 0.045600 0.005000
0.129500 0.043200 0.005000
0.113500 0.040700 0.005000
0.098400 0.038200 0.005000
0.084300 0.035500 0.005000
0.071100 0.032800 0.005000
0.059000 0.030000 0.005000
0.048000 0.027300 0.005000
0.038100 0.024500 0.005000
0.029200 0.021600 0.005000
0.021500 0.018800 0.005000
0.015000 0.015800 0.005000
0.009600 0.012700 0.005000
0.005400 0.009500 0.005000
0.002400 0.006400 0.005000
0.000600 0.003200 0.005000
0.000000 0.000000 0.005000
0.000600 -0.003200 0.005000
0.002400 -0.006600 0.005000
0.005400 -0.009600 0.005000
0.009600 -0.012700 0.005000
0.015000 -0.015800 0.005000
0.021500 -0.018800 0.005000
0.029200 -0.021800 0.005000
0.038100 -0.024700 0.005000
0.048000 -0.027600 0.005000
0.059000 -0.030400 0.005000
0.071100 -0.033200 0.005000
0.084300 -0.035800 0.005000
0.098400 -0.038400 0.005000
0.113500 -0.040900 0.005000
0.129500 -0.043300 0.005000
0.146500 -0.045600 0.005000
0.164200 -0.047800 0.005000
0.182800 -0.049800 0.005000
0.202200 -0.051700 0.005000
0.222200 -0.053400 0.005000
0.243000 -0.055000 0.005000
0.264300 -0.056400 0.005000
0.286200 -0.057500 0.005000
0.308700 -0.058400 0.005000
0.331600 -0.059000 0.005000
0.354900 -0.059200 0.005000
0.378500 -0.058900 0.005000
0.402500 -0.058200 0.005000
0.426600 -0.056900 0.005000
0.451000 -0.055200 0.005000
0.475500 -0.053000 0.005000
0.500000 -0.050400 0.005000
0.524500 -0.047600 0.005000
0.549000 -0.044500 0.005000
0.573400 -0.041300 0.005000
0.597500 -0.037900 0.005000
0.621500 -0.034600 0.005000
0.645100 -0.031100 0.005000
0.668500 -0.027700 0.005000
0.691300 -0.024400 0.005000
0.713800 -0.021200 0.005000
0.735700 -0.018100 0.005000
0.757100 -0.015200 0.005000
0.777800 -0.012600 0.005000
0.797900 -0.010100 0.005000
0.817200 -0.007900 0.005000
0.835800 -0.005900 0.005000
0.853600 -0.004200 0.005000
0.870500 -0.002700 0.005000
0.886500 -0.001500 0.005000
0.901600 -0.000500 0.005000
0.915700 0.000300 0.005000
0.928900 0.000800 0.005000
0.941000 0.001100 0.005000
0.952000 0.001300 0.005000
0.961900 0.001300 0.005000
0.970800 0.001100 0.005000
0.978500 0.000900 0.005000
0.985000 0.000700 0.005000
0.990400 0.000500 0.005000
0.994600 0.000300 0.005000
0.997600 0.000100 0.005000
0.999400 0.000000 0.005000
1.940619 1.500000 0.000000
1.880735 1.500000 0.000000
1.820342 1.500000 0.000000
1.759437 1.500000 0.000000
1.698016 1.500000 0.000000
1.636073 1.500000 0.000000
1.573606 1.500000 0.000000
1.510608 1.500000 0.000000
1.447075 1.500000 0.000000
1.383004 1.500000 0.000000
1.318389 1.500000 0.000000
1.253227 1.500000 0.000000
1.187511 1.500000 0.000000
1.121238 1.500000 0.000000
1.054403 1.500000 0.000000
0.987000 1.500000 0.000000
0.919026 1.500000 0.000000
0.850476 1.500000 0.000000
0.781343 1.500000 0.000000
0.711625 1.500000 0.000000
0.641315 1.500000 0.000000
0.570408 1.500000 0.000000
0.498900 1.500000 0.000000
0.426786 1.500000 0.000000
0.354060 1.500000 0.000000
0.280716 1.500000 0.000000
0.206751 1.500000 0.000000
0.132158 1.500000 0.000000
0.056932 1.500000 0.000000
-0.018931 1.500000 0.000000
-0.095439 1.500000 0.000000
-0.172595 1.500000 0.000000
-0.250406 1.500000 0.000000
-0.328877 1.500000 0.000000
-0.408013 1.500000 0.000000
-0.487821 1.500000 0.000000
-0.568306 1.500000 0.000000
-0.649474 1.500000 0.000000
-0.731330 1.500000 0.000000
-0.813880 1.500000 0.000000
-0.897131 1.500000 0.000000
-0.981088 1.500000 0.000000
-1.065757 1.500000 0.000000
-1.151145 1.500000 0.000000
-1.237257 1.500000 0.000000
-1.324099 1.500000 0.000000
-1.411678 1.500000 0.000000
-1.500000 1.411765 0.000000
-1.500000 1.323529 0.000000
-1.500000 1.235294 0.000000
-1.500000 1.147059 0.000000
-1.500000 1.058824 0.000000
-1.500000 0.970588 0.000000
-1.500000 0.882353 0.000000
-1.500000 0.794118 0.000000
-1.500000 0.705882 0.000000
-1.500000 0.617647 0.000000
-1.500000 0.529412 0.000000
-1.500000 0.441176 0.000000
-1.500000 0.352941 0.000000
-1.500000 0.264706 0.000000
-1.500000 0.176471 0.000000
-1.500000 0.088235 0.000000
-1.500000 0.000000 0.000000
-1.500000 -0.088235 0.000000
-1.500000 -0.176471 0.000000
-1.500000 -0.264706 0.000000
-1.500000 -0.352941 0.000000
-1.500000 -0.441176 0.000000
-1.500000 -0.529412 0.000000
-1.500000 -0.617647 0.000000
-1.500000 -0.705882 0.000000
-1.500000 -0.794118 0.000000
-1.500000 -0.882353 0.000000
-1.500000 -0.970588 0.000000
-1.500000 -1.058824 0.000000
-1.500000 -1.147059 0.000000
-1.500000 -1.235294 0.000000
-1.500000 -1.323529 0.000000
-1.500000 -1.411765 0.000000
-1.411678 -1.500000 0.000000
-1.324099 -1.500000 0.000000
-1.237257 -1.500000 0.000000
-1.151145 -1.500000 0.000000
-1.065757 -1.500000 0.000000
-0.981088 -1.500000 0.000000
-0.897131 -1.500000 0.000000
-0.813880 -1.500000 0.000000
-0.731330 -1.500000 0.000000
-0.649474 -1.500000 0.000000
-0.568306 -1.500000 0.000000
-0.487821 -1.500000 0.000000
-0.408013 -1.500000 0.000000
-0.328877 -1.500000 0.000000
-0.250406 -1.500000 0.000000
[...]
CELL_DATA 18477
SCALARS Density double 1
LOOKUP_TABLE default
       0.4688948671510829
       0.4360568401870311
       0.4610403740382282
       0.4394828092716274
       0.3731253400240926
       0.4491869638156883
       0.4666344195971786
       0.4185945331884485
       0.4654485758433684
       0.4827125255822134
       0.4771263412975478
       0.4807456129644364
       0.4449547162261643
       0.4433442700261908
       0.3584882864202262
       0.4475457759421411
       0.4769528445208978
       0.3986037031007845
       0.4534345265749447
       0.4928028984961601
       0.5084371728472297
       0.4605628164852504
       0.4487083651423596
       0.4178540566629200
       0.5090556646850543
       0.4744307191378516
       0.4922908170644302
       0.4803646250400311
       0.4529410588411819
       0.4210865699653616
       0.4206695467135715
       0.5033998433354768
       0.4567182163630719
       0.4258256876426353
       0.4482873724996936
       0.4421954577351883
       0.4941872175551054
       0.4749723079293399
       0.4200085304134964
       0.4841335053235175
       0.3981100069549953
       0.4321505606525436
       0.4269716645887381
       0.5093952398299557
       0.4798354035990496
       0.4758457901614930
       0.4551013346909742
       0.4331649042226980
       0.4836821260332418
       0.4769122318055851
       0.4811584286344735
       0.4579835582155410
       0.4723873304386784
       0.4457609444490130
       0.3873322854862153
       0.4440914476042995
       0.4869004040479468
       0.4770272502455145
       0.4752933083487421
       0.4350105380381553
       0.4576928732643169
       0.4405485124481592
       0.3961932585699562
       0.4912574757591537
       0.4770620307494280
       0.4694210514835851
       0.4823088753449450
       0.4680194670266145
       0.4765457226637966
       0.4518622291735416
       0.4740012041263068
       0.4638513442631762
       0.4048251298187631
       0.4832048581059301
       0.3927925362179324
       0.4847188654807604
       0.4344096463534338
       0.4748425348729921
       0.4588636857777294
       0.4448259643839788
       0.4493190153695127
       0.4956309602983999
       0.4779925288264298
       0.3802817010029514
       0.4446930228410018
       0.4856859963191960
       0.4601703126179037
       0.4880371195126319
       0.4630598993170572
       0.4629160018774270
       0.4422988705478160
       0.4616876916377273
       0.4999581810574205
       0.4542414911835758
       0.4740886557639985
       0.4925557453582730
       0.4664956716078490
       0.4710453348405995
       0.4625401543929394
       0.3766957465548301
       0.4634468570552316
       0.4657527543084704
       0.4738126311171660
       0.4507577881341806
       0.4759771481164827
       0.4395473973117118
       0.4861937160017937
       0.4420698238608515
       0.4542178150897898
       0.4682010358687035
       0.4625164633786714
       0.4669453218376155
       0.4827985995109830
       0.4876205120291106
       0.4838306745372261
       0.4325713113306321
       0.4464626345298282
       0.4753859412224945
       0.4714284818825630
       0.4852561706955174
       0.4791974374642325
       0.4913491753019658
       0.4775109396776918
       0.4763623059894151
       0.5162788899832563
       0.4477542199968268
       0.4503016161179152
       0.3852071516165336
       0.4365142173487108
       0.3814626391657946
       0.4678268239178121
       0.4437210959174208
       0.3963105865617513
       0.4794852441823485
       0.4851771233015671
       0.4954763343567828
       0.4762278748179675
       0.3731167502846870
       0.4117709510680020
       0.4690302075709614
       0.4667247315868956
       0.4849338038140658
       0.4486554028074184
       0.4962467788770442
       0.4760306930763599
       0.4495130594012858
       0.4757279170470978
       0.4794994682651575
       0.3554001487268774
       0.4525388990515137
       0.4552711836403679
       0.4060339696651873
       0.4495035584205954
       0.4070435107458921
       0.4685096296262706
       0.4654321461128395
       0.4138276177050890
       0.3789467432871089
       0.4720521871774229
       0.4809543410843294
       0.4822152369779101
       0.4748173647657540
       0.4974128723520913
       0.4875719627303519
       0.4826882057249521
       0.4744152835370879
       0.4434545486162774
       0.3848724789117932
       0.4762229694074527
       0.4490133369742473
       0.4845181139082851
       0.5138437707204917
       0.4719407618388218
       0.5258069584683633
       0.4820864523808355
       0.4806243240996135
       0.4540154945311246
       0.4736464611810778
       0.4224722634085136
       0.4032291230208997
       0.4219391691591838
       0.4659897629262038
       0.3797752365115465
       0.4603791481876039
       0.4776976256816491
       0.4103512196862940
       0.4985323190333718
       0.4710621615775891
       0.4827941895039010
       0.4826071360107730
       0.4720648035639168
       0.4427773267408334
       0.3956974238765090
       0.4571528320833102
       0.4987696545142659
       0.4741878920674613
       0.4463385915635146
       0.4650860599823695
       0.4518954891197824
       0.4584639150722162
       0.4496925386488251
       0.4773195950149391
       0.4889601459888002
       0.3989523513117796
       0.4732872332764617
       0.4762678188240814
       0.4880070549736992
       0.4864351759699648
       0.4756108256938871
       0.4724197824898756
       0.5043777408219744
       0.4716938164395043
       0.4605121536402880
       0.3827740974740082
       0.4533292804492493
       0.3923036551415534
       0.4105259012630544
       0.3806673738605839
       0.4590251298482517
       0.4662153806878007
       0.4895760361756918
       0.4897162243572289
       0.3839834278557722
       0.4720928529114491
       0.3731327315647208
       0.4645731969068283
       0.3561868042756455
       0.4827984838380094
       0.4653384935043327
       0.4818025874529349
       0.4491206680345095
       0.4817372054372136
       0.4841520578998204
       0.4721275650125079
       0.3693037161675908
       0.4908616808407171
       0.4149997187239195
       0.4631460397634680
       0.3586663955238220
       0.4783844691764814
       0.4026142144781016
       0.4798295155872782
       0.4486250092369475
       0.4632208655649196
       0.4683971350392461
       0.4812882213336960
       0.4876575840976143
       0.4886773815484755
       0.3972082261805259
       0.3939224614059725
       0.4701827291614649
       0.4754171235455000
       0.3885390969046645
       0.4393860249582808
       0.4655549338488282
       0.4696964632352332
       0.4742546968927938
       0.4391697120221268
       0.4580758338974587
       0.4735766487703527
       0.4653201138363706
       0.4778721409798244
       0.4076725309787201
       0.4786489162428703
       0.4790974375667974
       0.4092799847257929
       0.4662312452794663
       0.4266874194075552
       0.4750253871749455
       0.4776266298226404
       0.4892171712245583
       0.5351600683391717
       0.4456405689084351
       0.3924154010537323
       0.4585861419537107
       0.4258524152390651
       0.4937130281325752
       0.4757625259451291
       0.4395772905638682
       0.4667415135813178
       0.4631441903060118
       0.3805096808949996
       0.4864484189011542
       0.4737082235775909
       0.4558544182091587
       0.4751007574379607
       0.4848313735809148
       0.4744870518657314
       0.4327132536292137
       0.4557469645624380
       0.3737370270163490
       0.4419801667465785
       0.5195798496291339
       0.4871947556727441
       0.4744989568985005
       0.4615262480207552
       0.4753325779901730
       0.4729994160765291
       0.3941537059740109
       0.4480069971581697
       0.5301748245391461
       0.4514291563615374
       0.4781333014255985
       0.4837321532650782
       0.4674168823829355
       0.4749869968888168
       0.4889754292941014
       0.4695504736001079
       0.3740996326002030
       0.4908681471609377
       0.4813162447182859
       0.3749171679161060
       0.4721781343742449
       0.4761798326209686
       0.4574193830381364
       0.4760097133037264
       0.4900117303049282
       0.5196466675221809
       0.4933415314808725
       0.4789683829400947
       0.5138857558282427
       0.4077008823369137
       0.4482451795687300
       0.4930576876196903
       0.4783401146675737
       0.4493352384778609
       0.4708698454357025
       0.4903920554016783
       0.4689874865500453
       0.4582857466967613
       0.4739821123516383
       0.4653900309889810
       0.4578329295068386
       0.4335845083651597
       0.4760575884700601
       0.4832349363958262
       0.4794316800435884
       0.4488546960910842
       0.4259721222539694
       0.4961996194759548
       0.4565148806217232
       0.4953256573729596
       0.4769731436237039
       0.4753098140754295
       0.4273507821913875
       0.4754367826923089
       0.4484656089406186
       0.4183171920715049
       0.4679600459774628
       0.4701285688452768
       0.4455674683084149
       0.4809450857422361
       0.3686576887063914
       0.4743906474941637
       0.4615399011201566
       0.4292308963200903
       0.4646952052586450
       0.4738632718807180
       0.4637750946485669
       0.3891803157918756
       0.5158491855670260
       0.4847819984064403
       0.4627116549973511
       0.4765628026115257
       0.4147282004811662
       0.4988355327466959
       0.4766328568637700
       0.3763093077044565
       0.4791420369960690
       0.4769276252958582
       0.4554792179833226
       0.4582491295751080
       0.4319815687005983
       0.4777499717513256
       0.4922565871936226
       0.4657179038263646
       0.4960325186413516
       0.4544862601703563
       0.4678060662032105
       0.4521809690915001
       0.4268288214671877
       0.3682170893720222
       0.4068987017010791
       0.4641774672209841
       0.4524317605102715
       0.4566700778800338
       0.4030730080908593
       0.4744952250591380
       0.4388751347950186
       0.3723340151910027
       0.4261444083252265
       0.4531200562900919
       0.4588386768764010
       0.4095862386221346
       0.4868982946425186
       0.4815937367369555
       0.4725604680120387
       0.4384382858180809
       0.4245217288116194
       0.4503119977557082
       0.4208567886657080
       0.4450077804134235
       0.4334572477479822
       0.4345810112262391
       0.4634958331116781
       0.5272911749408775
       0.4655782954133600
       0.4582060393103428
       0.4720511072335832
       0.4103035704413162
       0.4051461543936813
       0.4763496568397316
       0.4623548073582488
       0.4501425621564884
       0.4166996101457287
       0.4681624648358772
       0.4455325519547039
       0.3791871172142975
       0.5075330114129720
       0.4750120310090066
       0.4648296816939959
       0.4749302647163721
       0.4758507337790596
       0.4745796816939707
       0.3953580076279861
       0.4904442218507027
       0.4753500797888561
       0.4125997072666694
       0.4122949740222024
       0.4067342374635169
       0.4646082947196257
       0.3666756646061506
       0.4774821299283870
       0.4918827797641661
       0.4769138369317423
       0.3834412935809138
       0.4469774186065482
       0.4647726362932200
       0.4463505674415750
       0.4740462173483984
       0.4458835895699316
       0.4230932440297631
       0.4774329393604301
       0.4511152992220666
       0.4693904711087741
       0.4491223851216878
       0.4958312088746898
       0.4797901639647126
       0.5165125266025593
       0.4293531761615347
       0.4693645014641403
       0.4593619720629329
       0.4224483521798346
       0.4832009145779722
       0.4797287111502889
       0.4787465574708284
       0.4580380263996477
       0.3722480609763097
       0.4741097754806226
       0.4015584216097248
       0.4694044659469158
       0.4767590604005407
       0.4683522257729239
       0.3554495111190363
       0.4281092526815644
       0.4160348872811786
       0.4640170261754016
       0.4759178023976670
       0.4765594552725405
       0.4506200597655327
       0.4768767135463386
       0.4786898836737759
       0.3828932032131639
       0.4581551397511067
       0.4601265005636404
       0.4662703977573211
       0.4806410135184500
       0.4760796943435013
       0.4712357312268950
       0.4480976848190333
       0.4416543025080484
       0.4140947460864814
       0.4470097034376750
       0.4459935799992341
       0.5334923999864563
       0.4615244758076003
       0.4683759166622811
       0.4639680710935770
       0.4678554671224932
       0.4718950723543403
       0.4681933495684275
       0.4675629693722694
       0.4047389146406258
       0.4535017907676315
       0.4422422367251655
       0.3827532487813918
       0.4761514023947535
       0.3857442047658334
       0.4572995284237223
       0.4495944855554799
       0.4751550839097722
       0.3766733648169589
       0.4510074345021591
       0.4241537793246848
       0.4159610617332570
       0.4734080839431810
       0.4649103639564858
       0.4383925393784978
       0.3945570970743115
       0.4628527136797643
       0.4904678595267887
       0.5105449264634739
       0.4513691801931681
       0.4518314841494389
       0.5060928128186066
       0.4692665494926909
       0.4872229143741558
       0.4588593413584636
       0.4700019328576399
       0.4347662793002435
       0.4797873648497700
       0.4847715241971678
       0.3840455960094645
       0.4680051819292925
       0.4519182590280371
       0.4745654902683162
       0.4778178110876625
       0.4743429661748517
       0.4012909235390127
       0.4647389204486130
       0.4779085000909760
       0.4963675393804992
       0.4604008761948264
       0.4826090616229145
       0.4815791499833809
       0.4535247299884053
       0.4816811418195762
       0.3700371285058143
       0.4750793568291918
       0.4634904595818359
       0.4505631912847382
       0.4852855057671103
       0.4815121088670936
       0.4741570353149138
       0.4825973868716312
       0.4536462895754674
       0.4740474513382823
       0.4758133872229518
       0.4687069565620404
       0.4739489072432796
       0.4919014044366254
       0.4777361600105868
       0.4872714185714205
       0.4922441888671150
       0.4268213012133071
       0.4111736238131233
       0.4792849045512947
       0.4660879724783844
       0.4522289364791349
       0.4087380757852919
       0.4702429330981697
       0.4470943499078621
       0.4146781312428313
       0.4510506023483246
       0.4775782378632338
       0.3868588603732347
       0.4865603923516222
       0.4700706403269597
       0.4305408762246957
       0.5068661949617579
       0.4790461492408566
       0.4604332469691723
       0.4716567706486399
       0.4536952146051271
       0.4760559126679922
       0.4773079041716098
       0.3631779884984828
       0.4899122329080481
       0.4716729542275692
       0.4649043251853420
       0.4858482877435256
       0.4348119294296201
       0.4139032169269214
       0.4872281330998572
       0.4783237038846030
       0.5375837323151053
       0.4990495364890092
       0.4615817613417295
       0.4909121707538943
       0.4374022084325057
       0.4977043910977387
       0.3853653261657758
       0.4735864866452693
       0.4726707173386716
       0.4323549920703195
       0.4572376119719521
       0.4717699304383310
       0.4818725197271257
       0.4730692137091587
       0.4815909407138767
       0.3860453940972494
       0.5017773548486468
       0.4568217498045406
       0.4735739245031121
       0.4262031708757436
       0.4660042063829645
       0.4746888854614577
       0.4636582605092849
       0.4919401563379597
       0.4645996225516020
       0.3950396759691719
       0.4857616263436513
       0.4391406553831926
       0.4708241080164907
       0.4749593640827739
       0.4643340417660407
       0.4485255339443908
       0.4808069112333506
       0.4682308815250990
       0.4717517353487340
       0.4025433084578151
       0.4874467843690249
       0.4078757322172415
       0.4812837018710022
       0.4248212109192775
       0.4639341694379182
       0.4660362428719596
       0.4825774095468487
       0.4792744603682553
       0.4573542990855946
       0.4425885750271409
       0.4005575714124340
       0.4329193338679018
       0.4931932605917527
       0.4998093568996083
       0.4349585152350020
       0.4852073297638806
       0.4833938940970274
       0.4684203797692686
       0.3591239966926289
       0.3965080857613201
       0.4809208983131896
       0.4901357276129435
       0.4925476555444417
       0.4861213792629451
       0.4756439834924842
       0.3925360937161753
       0.4634065039462469
       0.3832569096179652
       0.4785397261164764
       0.4818540177016118
       0.3739192104758579
       0.4359185607029302
       0.4753245713501223
       0.4742981798992518
       0.4856671013387170
       0.4772705760558011
       0.4763785307599648
       0.4931752548455328
       0.4745821900096813
       0.3512641891555040
       0.4651906464375278
       0.3910699300651193
       0.4741200458440247
       0.4530701453751307
       0.4756142679661701
       0.4425191246662044
       0.4666199401774009
       0.4639046543669876
       0.4414127825173119
       0.4190836824774235
       0.4828788955052193
       0.4117661471652689
       0.4483714347582579
       0.4498441984827324
       0.4757674143977277
       0.4555410100569139
       0.4849758053170266
       0.4731258435731003
       0.4796155420996802
       0.4534335063749365
       0.3748114429200332
       0.4681824806381030
       0.4468788429003342
       0.4657677701075130
       0.4755746671833516
       0.4967171184245208
       0.4880100070315830
       0.4534244779861756
       0.4775408101954579
       0.4804225721369801
       0.4928229420467807
       0.4073850877955852
       0.4751218140073990
       0.4357634836159214
       0.4206801084742559
       0.4677907144053785
       0.5269425222054228
       0.4880970773621374
       0.4918580405811133
       0.3874331220710274
       0.4518509908944574
       0.4683913312719304
       0.4559398520540381
       0.4905913007654591
       0.4786950371926129
       0.4751769843394850
       0.4718048503299880
       0.3969546316515297
       0.4409670573021700
       0.4557591375951746
       0.4904521273559022
       0.4758074065443579
       0.4820243035224981
       0.4881452335473677
       0.3792790512829405
       0.4510930985521723
       0.4737449168352554
       0.4151844757925542
       0.4770894178458846
       0.4177086403787328
       0.4830409263591386
       0.5417357662590744
       0.4639484165960784
       0.4003815498180762
       0.4796423848435961
       0.4200720395955833
       0.4749844290105791
       0.4824867167423176
       0.4759963705913329
       0.4895203002828083
       0.4557387505798753
       0.4232624053110699
       0.4777950985572569
       0.4277672463175737
       0.4214790100557626
       0.3693797353533355
       0.4687241460392261
       0.4555205955846584
       0.4638703845007123
       0.4589782740531443
       0.4611495127120386
       0.4427995635250674
       0.4752505297296439
       0.4628617927924782
       0.3839647591248412
       0.4846254232420008
       0.3980773314173472
       0.4669050640244269
       0.3583275366364557
       0.4487474480546190
       0.4623108933827580
       0.4642153967016461
       0.4748371273746104
       0.4884368919733912
       0.4268831793688182
       0.4375503927374562
       0.4510392453204577
       0.4464964146655770
       0.4427638323466953
       0.4670385629599185
       0.3961079617676838
       0.3990113921154653
       0.3787718913097841
       0.3647146047235428
       0.4866332324415575