# vtk DataFile Version 3.0
GASDIN data file
ASCII
DATASET UNSTRUCTURED_GRID
POINTS 20624 double
0.000000 0.000000 0.000000
0.000600 -0.003200 0.000000
0.000600 0.003200 0.000000
0.002400 -0.006600 0.000000
0.002400 0.006400 0.000000
0.005400 -0.009600 0.000000
0.005400 0.009500 0.000000
0.009600 -0.012700 0.000000
0.009600 0.012700 0.000000
0.015000 -0.015800 0.000000
0.015000 0.015800 0.000000
0.021500 -0.018800 0.000000
0.021500 0.018800 0.000000
0.029200 -0.021800 0.000000
0.029200 0.021600 0.000000
0.038100 -0.024700 0.000000
0.038100 0.024500 0.000000
0.048000 -0.027600 0.000000
0.048000 0.027300 0.000000
0.059000 -0.030400 0.000000
0.059000 0.030000 0.000000
0.071100 -0.033200 0.000000
0.071100 0.032800 0.000000
0.084300 -0.035800 0.000000
0.084300 0.035500 0.000000
0.098400 -0.038400 0.000000
0.098400 0.038200 0.000000
0.113500 -0.040900 0.000000
0.113500 0.040700 0.000000
0.129500 -0.043300 0.000000
0.129500 0.043200 0.000000
0.146500 -0.045600 0.000000
0.146500 0.045600 0.000000
0.164200 -0.047800 0.000000
0.164200 0.047800 0.000000
0.182800 -0.049800 0.000000
0.182800 0.049900 0.000000
0.202200 -0.051700 0.000000
0.202200 0.051900 0.000000
0.222200 -0.053400 0.000000
0.222200 0.053800 0.000000
0.243000 -0.055000 0.000000
0.243000 0.055600 0.000000
0.264300 -0.056400 0.000000
0.264300 0.057100 0.000000
0.286200 -0.057500 0.000000
0.286200 0.058500 0.000000
0.308700 -0.058400 0.000000
0.308700 0.059700 0.000000
0.331600 -0.059000 0.000000
0.331600 0.060700 0.000000
0.354900 -0.059200 0.000000
0.354900 0.061600 0.000000
0.378500 -0.058900 0.000000
0.378500 0.062200 0.000000
0.402500 -0.058200 0.000000
0.402500 0.062600 0.000000
0.426600 -0.056900 0.000000
0.426600 0.062900 0.000000
0.451000 -0.055200 0.000000
0.451000 0.062900 0.000000
0.475500 -0.053000 0.000000
0.475500 0.062600 0.000000
0.500000 -0.050400 0.000000
0.500000 0.062100 0.000000
0.524500 -0.047600 0.000000
0.524500 0.061400 0.000000
0.549000 -0.044500 0.000000
0.549000 0.060300 0.000000
0.573400 -0.041300 0.000000
0.573400 0.059000 0.000000
0.597500 -0.037900 0.000000
0.597500 0.057300 0.000000
0.621500 -0.034600 0.000000
0.621500 0.055500 0.000000
0.645100 -0.031100 0.000000
0.645100 0.053400 0.000000
0.668500 -0.027700 0.000000
0.668500 0.051100 0.000000
0.691300 -0.024400 0.000000
0.691300 0.048600 0.000000
0.713800 -0.021200 0.000000
0.713800 0.046100 0.000000
0.735700 -0.018100 0.000000
0.735700 0.043400 0.000000
0.757100 -0.015200 0.000000
0.757100 0.040800 0.000000
0.777800 -0.012600 0.000000
0.777800 0.038000 0.000000
0.797900 -0.010100 0.000000
0.797900 0.035100 0.000000
0.817200 -0.007900 0.000000
0.817200 0.032300 0.000000
0.835800 -0.005900 0.000000
0.835800 0.029500 0.000000
0.853600 -0.004200 0.000000
0.853600 0.026700 0.000000
0.870500 -0.002700 0.000000
0.870500 0.024000 0.000000
0.886500 -0.001500 0.000000
0.886500 0.021300 0.000000
0.901600 -0.000500 0.000000
0.901600 0.018700 0.000000
0.915700 0.000300 0.000000
0.915700 0.016300 0.000000
0.928900 0.000800 0.000000
0.928900 0.013900 0.000000
0.941000 0.001100 0.000000
0.941000 0.011700 0.000000
0.952000 0.001300 0.000000
0.952000 0.009600 0.000000
0.961900 0.001300 0.000000
0.961900 0.007800 0.000000
0.970800 0.001100 0.000000
0.970800 0.006100 0.000000
0.978500 0.000900 0.000000
0.978500 0.004600 0.000000
0.985000 0.000700 0.000000
0.985000 0.003300 0.000000
0.990400 0.000500 0.000000
0.990400 0.002200 0.000000
0.994600 0.000300 0.000000
0.994600 0.001300 0.000000
0.997600 0.000100 0.000000
0.997600 0.000700 0.000000
0.999400 0.000000 0.000000
0.999400 0.000300 0.000000
1.000000 0.000000 0.000000
-0.500000 -1.000000 0.000000
1.500000 -1.000000 0.000000
1.500000 1.000000 0.000000
-0.500000 1.000000 0.000000
1.500000 -1.000000 0.005000
1.500000 1.000000 0.005000
-0.500000 1.000000 0.005000
-0.500000 -1.000000 0.005000
1.000000 0.000000 0.005000
0.999400 0.000300 0.005000
0.997600 0.000700 0.005000
0.994600 0.001300 0.005000
0.990400 0.002200 0.005000
0.985000 0.003300 0.005000
0.978500 0.004600 0.005000
0.970800 0.006100 0.005000
0.961900 0.007800 0.005000
0.952000 0.009600 0.005000
0.941000 0.011700 0.005000
0.928900 0.013900 0.005000
0.915700 0.016300 0.005000
0.901600 0.018700 0.005000
0.886500 0.021300 0.005000
0.870500 0.024000 0.005000
0.853600 0.026700 0.005000
0.835800 0.029500 0.005000
0.817200 0.032300 0.005000
0.797900 0.035100 0.005000
0.777800 0.038000 0.005000
0.757100 0.040800 0.005000
0.735700 0.043400 0.005000
0.713800 0.046100 0.005000
0.691300 0.048600 0.005000
0.668500 0.051100 0.005000
0.645100 0.053400 0.005000
0.621500 0.055500 0.005000
0.597500 0.057300 0.005000
0.573400 0.059000 0.005000
0.549000 0.060300 0.005000
0.524500 0.061400 0.005000
0.500000 0.062100 0.005000
0.475500 0.062600 0.005000
0.451000 0.062900 0.005000
0.426600 0.062900 0.005000
0.402500 0.062600 0.005000
0.378500 0.062200 0.005000
0.354900 0.061600 0.005000
0.331600 0.060700 0.005000
0.308700 0.059700 0.005000
0.286200 0.058500 0.005000
0.264300 0.057100 0.005000
0.243000 0.055600 0.005000
0.222200 0.053800 0.005000
0.202200 0.051900 0.005000
0.182800 0.049900 0.005000
0.164200 0.047800 0.005000
0.146500 0.045600 0.005000
0.129500 0.043200 0.005000
0.113500 0.040700 0.005000
0.098400 0.038200 0.005000
0.084300 0.035500 0.005000
0.071100 0.032800 0.005000
0.059000 0.030000 0.005000
0.048000 0.027300 0.005000
0.038100 0.024500 0.005000
0.029200 0.021600 0.005000
0.021500 0.018800 0.005000
0.015000 0.015800 0.005000
0.009600 0.012700 0.005000
0.005400 0.009500 0.005000
0.002400 0.006400 0.005000
0.000600 0.003200 0.005000
0.000000 0.000000 0.005000
0.000600 -0.003200 0.005000
0.002400 -0.006600 0.005000
0.005400 -0.009600 0.005000
0.009600 -0.012700 0.005000
0.015000 -0.015800 0.005000
0.021500 -0.018800 0.005000
0.029200 -0.021800 0.005000
0.038100 -0.024700 0.005000
0.048000 -0.027600 0.005000
0.059000 -0.030400 0.005000
0.071100 -0.033200 0.005000
0.084300 -0.035800 0.005000
0.098400 -0.038400 0.005000
0.113500 -0.040900 0.005000
0.129500 -0.043300 0.005000
0.146500 -0.045600 0.005000
0.164200 -0.047800 0.005000
0.182800 -0.049800 0.005000
0.202200 -0.051700 0.005000
0.222200 -0.053400 0.005000
0.243000 -0.055000 0.005000
0.264300 -0.056400 0.005000
0.286200 -0.057500 0.005000
0.308700 -0.058400 0.005000
0.331600 -0.059000 0.005000
0.354900 -0.059200 0.005000
0.378500 -0.058900 0.005000
0.402500 -0.058200 0.005000
0.426600 -0.056900 0.005000
0.451000 -0.055200 0.005000
0.475500 -0.053000 0.005000
0.500000 -0.050400 0.005000
0.524500 -0.047600 0.005000
0.549000 -0.044500 0.005000
0.573400 -0.041300 0.005000
0.597500 -0.037900 0.005000
0.621500 -0.034600 0.005000
0.645100 -0.031100 0.005000
0.668500 -0.027700 0.005000
0.691300 -0.024400 0.005000
0.713800 -0.021200 0.005000
0.735700 -0.018100 0.005000
0.757100 -0.015200 0.005000
0.777800 -0.012600 0.005000
0.797900 -0.010100 0.005000
0.817200 -0.007900 0.005000
0.835800 -0.005900 0.005000
0.853600 -0.004200 0.005000
0.870500 -0.002700 0.005000
0.886500 -0.001500 0.005000
0.901600 -0.000500 0.005000
0.915700 0.000300 0.005000
0.928900 0.000800 0.005000
0.941000 0.001100 0.005000
0.952000 0.001300 0.005000
0.961900 0.001300 0.005000
0.970800 0.001100 0.005000
0.978500 0.000900 0.005000
0.985000 0.000700 0.005000
0.990400 0.000500 0.005000
0.994600 0.000300 0.005000
0.997600 0.000100 0.005000
0.999400 0.000000 0.005000
1.441176 1.000000 0.000000
1.382353 1.000000 0.000000
1.323529 1.000000 0.000000
1.264706 1.000000 0.000000
1.205882 1.000000 0.000000
1.147059 1.000000 0.000000
1.088235 1.000000 0.000000
1.029412 1.000000 0.000000
0.970588 1.000000 0.000000
0.911765 1.000000 0.000000
0.852941 1.000000 0.000000
0.794118 1.000000 0.000000
0.735294 1.000000 0.000000
0.676471 1.000000 0.000000
0.617647 1.000000 0.000000
0.558824 1.000000 0.000000
0.500000 1.000000 0.000000
0.441176 1.000000 0.000000
0.382353 1.000000 0.000000
0.323529 1.000000 0.000000
0.264706 1.000000 0.000000
0.205882 1.000000 0.000000
0.147059 1.000000 0.000000
0.088235 1.000000 0.000000
0.029412 1.000000 0.000000
-0.029412 1.000000 0.000000
-0.088235 1.000000 0.000000
-0.147059 1.000000 0.000000
-0.205882 1.000000 0.000000
-0.264706 1.000000 0.000000
-0.323529 1.000000 0.000000
-0.382353 1.000000 0.000000
-0.441176 1.000000 0.000000
-0.500000 0.941176 0.000000
-0.500000 0.882353 0.000000
-0.500000 0.823529 0.000000
-0.500000 0.764706 0.000000
-0.500000 0.705882 0.000000
-0.500000 0.647059 0.000000
-0.500000 0.588235 0.000000
-0.500000 0.529412 0.000000
-0.500000 0.470588 0.000000
-0.500000 0.411765 0.000000
-0.500000 0.352941 0.000000
-0.500000 0.294118 0.000000
-0.500000 0.235294 0.000000
-0.500000 0.176471 0.000000
-0.500000 0.117647 0.000000
-0.500000 0.058824 0.000000
-0.500000 0.000000 0.000000
-0.500000 -0.058824 0.000000
-0.500000 -0.117647 0.000000
-0.500000 -0.176471 0.000000
-0.500000 -0.235294 0.000000
-0.500000 -0.294118 0.000000
-0.500000 -0.352941 0.000000
-0.500000 -0.411765 0.000000
-0.500000 -0.470588 0.000000
-0.500000 -0.529412 0.000000
-0.500000 -0.588235 0.000000
-0.500000 -0.647059 0.000000
-0.500000 -0.705882 0.000000
-0.500000 -0.764706 0.000000
-0.500000 -0.823529 0.000000
-0.500000 -0.882353 0.000000
-0.500000 -0.941176 0.000000
-0.441176 -1.000000 0.000000
-0.382353 -1.000000 0.000000
-0.323529 -1.000000 0.000000
-0.264706 -1.000000 0.000000
-0.205882 -1.000000 0.000000
-0.147059 -1.000000 0.000000
-0.088235 -1.000000 0.000000
-0.029412 -1.000000 0.000000
0.029412 -1.000000 0.000000
0.088235 -1.000000 0.000000
0.147059 -1.000000 0.000000
0.205882 -1.000000 0.000000
0.264706 -1.000000 0.000000
0.323529 -1.000000 0.000000
0.382353 -1.000000 0.000000
0.441176 -1.000000 0.000000
0.500000 -1.000000 0.000000
0.558824 -1.000000 0.000000
0.617647 -1.000000 0.000000
0.676471 -1.000000 0.000000
0.735294 -1.000000 0.000000
0.794118 -1.000000 0.000000
0.852941 -1.000000 0.000000
0.911765 -1.000000 0.000000
0.970588 -1.000000 0.000000
1.029412 -1.000000 0.000000
1.088235 -1.000000 0.000000
1.147059 -1.000000 0.000000
1.205882 -1.000000 0.000000
[...]
CELL_DATA 11164
SCALARS Density double 1
LOOKUP_TABLE default
       0.5030374654189993
       0.5397074742182968
       0.5251189423266748
       0.5128740224311478
       0.5182064959102041
       0.5199571032507889
       0.5051175341350231
       0.4885092573762218
       0.5078745104473846
       0.4929837717725372
       0.4837328718368298
       0.5410753508566692
       0.5378942039937571
       0.5385488354700810
       0.5145891903310779
       0.4996251195775732
       0.5437994724171422
       0.5130360730457050
       0.5430172672612968
       0.5401439464825694
       0.5143439754671757
       0.5048722654725765
       0.5138907750489280
       0.5430939334765189
       0.4813539987238528
       0.5242323175864095
       0.5384039629081996
       0.4830585980581024
       0.5193549277527910
       0.5368360096947581
       0.4868984460263929
       0.5443976793171454
       0.5014206419881495
       0.5553981503268358
       0.5032610844762314
       0.5434171392890478
       0.5221249446771232
       0.5169130466683307
       0.5397763749242180
       0.5320811316519957
       0.5347778505606392
       0.5434577879057622
       0.5037571018881614
       0.5198346750354750
       0.4742804381857249
       0.5293801587164120
       0.5317296351663249
       0.5189866258574627
       0.5319707115262124
       0.5046433332238962
       0.5420101982169959
       0.5022604784703344
       0.5551993293147540
       0.5050269362310765
       0.5311435749865816
       0.5329862002243259
       0.4997604396740605
       0.5180260653129281
       0.5511585184127221
       0.5147093072910482
       0.5455245922243152
       0.5026337391612524
       0.5147992061305032
       0.5271479536475198
       0.4901295003699709
       0.5097225338569054
       0.5486345942718921
       0.5242318908076299
       0.5305113491635234
       0.5492549280729566
       0.5792852712419849
       0.5347551117019789
       0.5174479165578804
       0.4931020210051335
       0.5270282674034579
       0.5102036827307753
       0.4910700714492579
       0.5085681072446443
       0.5084158421955804
       0.5399632684111167
       0.5358321619109916
       0.5333622349163989
       0.5485523110977955
       0.5287132508815207
       0.5448320071963583
       0.5598329341361337
       0.5162908086972353
       0.5128705560058505
       0.5239399300273988
       0.5511126337326584
       0.4820682778873892
       0.5149652025430377
       0.4918792581447137
       0.5428410961663251
       0.5108886185933647
       0.5356256829033584
       0.5050716362456427
       0.5262818584730522
       0.5337913134858714
       0.4965165249847602
       0.5140790078392891
       0.5407869062684202
       0.5288064559100442
       0.5042140262140576
       0.5215530069549864
       0.5301655177635943
       0.5421571680770467
       0.5287115124808007
       0.5272899076714620
       0.4948022140181713
       0.5641108677129798
       0.5435918704448950
       0.5280291037538843
       0.5225468102420584
       0.4981263280370031
       0.4836739320678635
       0.5032613246609603
       0.4911453104874003
       0.5332182737456015
       0.5529525825073343
       0.5044079914952900
       0.5058498249014937
       0.5293508878631937
       0.4878246471988988
       0.5267283122360458
       0.5170555704280271
       0.5028041578236472
       0.5001226184031911
       0.5077662764845623
       0.5408736561955152
       0.5090889017863548
       0.5260135402099686
       0.5319614696460991
       0.5210374112050674
       0.5601174146770448
       0.5154653467978541
       0.5211520288608434
       0.5412792249182575
       0.5521504052177904
       0.5194963350755717
       0.5259638398466405
       0.5422720473332567
       0.5269738242556420
       0.5357672247343196
       0.5127822236267275
       0.4902732489527282
       0.5493761176334390
       0.4789415440852098
       0.5422986651718076
       0.5481122427247157
       0.4949173559823040
       0.5219303380731822
       0.4986552065005069
       0.5397368330911685
       0.5124212493146152
       0.5170527638027319
       0.5455190632688921
       0.5222562747739707
       0.5325987254671068
       0.5405038072354605
       0.4969960067820136
       0.4725877853802956
       0.5360774002582145
       0.5311234156184199
       0.4956280135428707
       0.5358090853050980
       0.5262985830007916
       0.5495968437221967
       0.5359018149821747
       0.5412904158858414
       0.5036406888225617
       0.5016965687521781
       0.5524433014558948
       0.5178315467109874
       0.5296234332997843
       0.5336230761375157
       0.5614860638642936
       0.5294941489151528
       0.5182301658823161
       0.5252500860253880
       0.5416678285650842
       0.4979068369419993
       0.5365124640645740
       0.5408327091758012
       0.5407806421180450
       0.4928509568807653
       0.5432171603414413
       0.5416382812695509
       0.5229595431181867
       0.5033462474661163
       0.5225059779665702
       0.5105033274961185
       0.5286514103848912
       0.5358293823305881
       0.5467367530364210
       0.5257589094836879
       0.5112161503591668
       0.5199450663814703
       0.5027828066730583
       0.5210646558951231
       0.5309374117460225
       0.5008698499112099
       0.5011745111648935
       0.5363457665979294
       0.5023470798247955
       0.5110860979484352
       0.5042090955895560
       0.5514616381143579
       0.5348711167992500
       0.5136885701556517
       0.4868012812707926
       0.5143769884545684
       0.5323770094339655
       0.5489254264778308
       0.5376853757440031
       0.5407236466334783
       0.5030858306536309
       0.5070435132732538
       0.5269851067678271
       0.4829425059303442
       0.5207801443755085
       0.4971240555949114
       0.4935329875332785
       0.4882582259523977
       0.5250734745757184
       0.5330971068583252
       0.5333608689463651
       0.4881455156622147
       0.4937501941147774
       0.5433533145481549
       0.5298416457761633
       0.5305986141520181
       0.5157087445295485
       0.5396282364369697
       0.5415334430447385
       0.5456090034939052
       0.5425823591464244
       0.5388723680701392
       0.5406004414641721
       0.5520303876461026
       0.5251418559843060
       0.5305885289615033
       0.5001019287793824
       0.5450354749125556
       0.5362796187353477
       0.4866488368723884
       0.5093554527980283
       0.4859692834069265
       0.5077176779268814
       0.5388097738788055
       0.5044824468804031
       0.5403038764893150
       0.5364113171586246
       0.4849028960160481
       0.5499868188184531
       0.5313054346874512
       0.5345884993347475
       0.5377577982738783
       0.5213953481254648
       0.5284554042442977
       0.5158226898490802
       0.4983734422789542
       0.5221705078512704
       0.5134424550297019
       0.5334688646442100
       0.5341254218461478
       0.5468768287458430
       0.5527542484253433
       0.5160489457044503
       0.5201486941363856
       0.5037943327437368
       0.5379445718840751
       0.5467512544360850
       0.5368184643349010
       0.5446490848401059
       0.5203761912099741
       0.5403810647688266
       0.5534147615530375
       0.5404359141619934
       0.5043569210739717
       0.5277493020462988
       0.4910571129449021
       0.5331580248385184
       0.5306638799695320
       0.5299580224783176
       0.5415821880490784
       0.5291026707100004
       0.5032922624996543
       0.5206775792371340
       0.5390555715520745
       0.4903125645787152
       0.5347119699841654
       0.5479963953993223
       0.5355117262691809
       0.5366231459302360
       0.5405176664899087
       0.5515038132911279
       0.5417373168702188
       0.5506371791125984
       0.4910384634922927
       0.5407426489941520
       0.4985247403600059
       0.5428600869689348
       0.5198857055705246
       0.5428894613053937
       0.5242341646246095
       0.5256641887267669
       0.4885025900473055
       0.5440812959271017
       0.5043939496544787
       0.5463857502182228
       0.5470922349702294
       0.5200288586423939
       0.4889868120236053
       0.5053299443598952
       0.5120169156643473
       0.5225723024427797
       0.5051994924016919
       0.5345647532855413
       0.5278687953716253
       0.5424827106287032
       0.5114541229384419
       0.5075249410908246
       0.5323532193532762
       0.5371935194289267
       0.5514489661087655
       0.5366281788033673
       0.5217905108553935
       0.5030805786293505
       0.5337153609408791
       0.5026409617650796
       0.5025992410648550
       0.4991052881950869
       0.5337772535123656
       0.5322406795289678
       0.5451261198002610
       0.5376647997687505
       0.5205835990367443
       0.5465117885043586
       0.5409241314678662
       0.5184188163326189
       0.5217507559018211
       0.5205644023946853
       0.5408671974226444
       0.4946668986023259
       0.5299648049161072
       0.5376221457899608
       0.5203320915433690
       0.5014900372440707
       0.5401030555685488
       0.5449303821631324
       0.5337328246453432
       0.4926705280059414
       0.5376801548169132
       0.4977340215894431
       0.5341530297739056
       0.5316034976942350
       0.5385952152232016
       0.5502241057192164
       0.5090361515825879
       0.5433181317811085
       0.5527616030167783
       0.5146617232831351
       0.4842399284171869
       0.5208800884002388
       0.5109570444447891
       0.5330759607831712
       0.5342135206403635
       0.5413806173901548
       0.5316761476874897
       0.5332804148335172
       0.5038918712413621
       0.5428264482537740
       0.5358951428981030
       0.5433094324733470
       0.5379297531417475
       0.5014468317776086
       0.5740445668205972
       0.5270561150186200
       0.5062607677740861
       0.5017977179023613
       0.5527056605996461
       0.4919125872330724
       0.5587717280248656
       0.5485709671233585
       0.5204258940899572
       0.5087778461285551
       0.5362822720457934
       0.4948344776347101
       0.5419881082160889
       0.5381960961273534
       0.5515515291303285
       0.5161380735885759
       0.5303802136808945
       0.5429947756765401
       0.5492723612513880
       0.5046941139890166
       0.5395751685805971
       0.4805329406021593
       0.5410160772980249
       0.5311880862893328
       0.5232610554103274
       0.5287385093343669
       0.5075650009416739
       0.5231980913093769
       0.5223622375868786
       0.5291328928306258
       0.5407963449030670
       0.5394989764037905
       0.5418176228500248
       0.4901796574228986
       0.5758327122483947
       0.5424207349435995
       0.5464189291053677
       0.5387631162741531
       0.5318766191221922
       0.5341114391019828
       0.5309265696010868
       0.5402680981893838
       0.5383888690590873
       0.5240588640320144
       0.5160249862144282
       0.5310447437661229
       0.4988709996288892
       0.5394279569727081
       0.5491647513486941
       0.5438725091729388
       0.5233292363650656
       0.5513871247759574
       0.5487603369095275
       0.5325016863703009
       0.4913353807059839
       0.5531469898130704
       0.5380784960638804
       0.4922801997948222
       0.5036613875756949
       0.4921673341741008
       0.5427615003991377
       0.4804035763992784
       0.5481424985368136
       0.4937490519121607
       0.5286831378040380
       0.4763776456701165
       0.5084723598936475
       0.5060876787129427
       0.5048021263705350
       0.5406395055813727
       0.5398144552680681
       0.5102714623839955
       0.5080268612604187
       0.5467974589298102
       0.5232848855416844
       0.5161790709538735
       0.5303545139837085
       0.5586126991224800
       0.5333335424504750
       0.5010833350616281
       0.5052046810682298
       0.5347506387707945
       0.4980348593379957
       0.5105865628953852
       0.5109324723925431
       0.5400189992271630
       0.5422934889891362
       0.5498347848477306
       0.5129593480631279
       0.5127926914636421
       0.5420037357898698
       0.4920157740896555
       0.4970259813179871
       0.5234310512621589
       0.4915137809519092
       0.5043241503978003
       0.5380003192767757
       0.5312014927673343
       0.5177773790781844
       0.5033513914827700
       0.5325158536937252
       0.5014234965140901
       0.5256652537736661
       0.4947511234598457
       0.5495552745779191
       0.5406647211316240
       0.5436440407956159
       0.5333173865982874
       0.5413185893979392
       0.5005621759816641
       0.5463260608324424
       0.5237768333336723
       0.5239006215174254
       0.5278309614354753
       0.5422700763428200
       0.5403717390532964
       0.5377431500905682
       0.5139073749735907
       0.5403529050940090
       0.5201779299437976
       0.5256987499355755
       0.5233175137828624
       0.5439494255735745
       0.5412408232312396
       0.5504635738467708
       0.5034298620674846
       0.5161563205821884
       0.5341661932344690
       0.5331874849198435
       0.4927331569698289
       0.5134394710997658
       0.5375166997239509
       0.5629143519232134
       0.5441267426439101
       0.5250602195661395
       0.5400483434416068
       0.5235778008663112
       0.5201864423719130
       0.5388023025284696
       0.5123048717886499
       0.5289517103073744
       0.5204566451108973
       0.4977492260994280
       0.5060283001344837
       0.5042235642958255
       0.5421825447921300
       0.5752004042790767
       0.5375306545642803
       0.5278844527778844
       0.5016211717958681
       0.5581461071888609
       0.5353001552239642
       0.5347631714456882
       0.5488616075366738
       0.5060830901268143
       0.5417611367434938
       0.5328826631704504
       0.5243386658863803
       0.5442255036718469
       0.5336175854572068
       0.5429244858030706
       0.5150997490613807
       0.5365151600145354
       0.5388323558464680
       0.5340373883536995
       0.5041302544143365
       0.5393324914046917
       0.5449131416106590
       0.5131053461477516
       0.5129222296425304
       0.5157774479887741
       0.5749799034332391
       0.5419265287169341
       0.5391750448135034
       0.4984257088016594
       0.5274886183453811
       0.5335330361905279
       0.5217014561033423
       0.5357731729407762
       0.5021133831748832
       0.5297754225980896
       0.5477678636107116
       0.5102074467713570
       0.5243130793269009
       0.5451549853527419
       0.5355809999724617
       0.5088788487475714
       0.4873685638034745
       0.5409394055918569
       0.5503878043989712
       0.5024052132916669
       0.5420803775680010
       0.5117191321171531
       0.5406353537786068
       0.4955075880351822
       0.5152934135944847
       0.5350284737746506
       0.5009956864435796
       0.5421845658726796
       0.5132865857505337
       0.5555139234053394
       0.5317289513956448
       0.5221304608664539
       0.5502828576451219
       0.5477852584192752
       0.5179013238740701
       0.4882440247167263
       0.5012251449767193
       0.4887610156469644
       0.5054558748835223
       0.5254698156715395
       0.4950620412204444
       0.5389832055051393
       0.5307897898622763
       0.5348150328603306
       0.5405842237048045
       0.5416687598502312
       0.4883949915030726
       0.4992265221397142
       0.5052301891735801
       0.5233216257402005
       0.5260249786391920
       0.5059986863248227
       0.5071218065455749
       0.5340306040813158
       0.5473616300621023
       0.4909455566298272
       0.5276560771203405
       0.5251203653278429
       0.5502040563012207
       0.4947433920774933
       0.5402589479316841
       0.5698910477244802
       0.5394996687098226
       0.5110571753919191
       0.5306285433894420
       0.5248885752532365
       0.5447050096934930
       0.5092760152336732
       0.4909346151352177
       0.5042537212284014
       0.5203284859579366
       0.5327199863099332
       0.5201441988589808
       0.5017260917153441
       0.4962141572172881
       0.4796929401998935
       0.5630128783573325
       0.5211772234748840
       0.5162234905949031
       0.5093407107837379
       0.5307309882178805
       0.5236727799699958
       0.5253101793189473
       0.5072096971252749
       0.4913101213714551
       0.5232409576547418
       0.5307679455688741
       0.5423778847612900
       0.5144710858151289
       0.5228657455177950
       0.5474996497711996
       0.5397646098071505
       0.5412747629640247
       0.4854756404754282
       0.4939484293670471
       0.5530260873536339
       0.5058576807186083
       0.4829802233583972
       0.5794141759620739
       0.5541250815282353
       0.5295666913543678
       0.5368874671422726
       0.4859664538415179
       0.5357968409438053
       0.5380760119292762
       0.5206846798188109
       0.5166386606880431
       0.5381141196744543
       0.5391850438524733
       0.5120307596189784
       0.5054727624875142
       0.4953766485336253
       0.5335283900883039
       0.5072113974201555
       0.5087120306722930
       0.5403773027064300
       0.5284237839365719
       0.5028292786165616
       0.4979146217445132
       0.5620825598536937
       0.4935871206052646
       0.5448433300976931
       0.5348511053048385
       0.5423724577644932
       0.5461903525191600
       0.5526944426761945
       0.5487364300691477
       0.4983442436678375
       0.4890755532799763
       0.5423330822650374
       0.5505733704824106
       0.5335045202920855
       0.4892339646878608
       0.5241977896608675
       0.5357512726088420
       0.5479118632790843
       0.5059570939640549
       0.5397763428381602
       0.5418404013381092
       0.5180425352722802
       0.5085568529646796
       0.5367353075813621
       0.5206335275571652
       0.5217722453123541
       0.5505346450907311
       0.5313619012939279
       0.5272370179285686
       0.5204368366682736
       0.5229096300058876
       0.5286790087350827
       0.4926728433962946
       0.5710470572012610
       0.4924418295538375
       0.5112076795366429
       0.5184873840389695
       0.4891447629980383
       0.5456597945450976
       0.5357576375427320
       0.5336217794547422
       0.5501443812761972
       0.5138707078583670
       0.5406685212447278
       0.5351588165153804
       0.5432016415240544
       0.5417676266001679
       0.5439271992298969
       0.5351981053171236
       0.5349222446431888
       0.5345979539639643
       0.5295381791437683
       0.5471567375405357
       0.5488501228916244
       0.4945565907018288
       0.5394550172958194
       0.5172303237099112
       0.5322957263237689
       0.5354388712295646
       0.4909871554820459
       0.5353751593770112
       0.5584761862521563
       0.5124067960911749
       0.4834628148249810
       0.5150021507714125
       0.5541957847084176
       0.4897218182424551
       0.5366250318929782
       0.5112499481162519
       0.5065693817850841
       0.4896173609986900
       0.5207855026614933
       0.5473648341898630
       0.4990945099092063
       0.5045847220138753
       0.5255369788001947
       0.4880053278984520
       0.5435101147519120
       0.5372473091053227
       0.5307030628129399
       0.5330874672420087
       0.5493063713572425
       0.5452847272809972
       0.5382729364838861
       0.5527765730968985
       0.5189099695375847
       0.5424492904329172
       0.5476261989861625
       0.5483079416465035
       0.5357146333286742
       0.5360238061402085
       0.5400225330766574
       0.5064709696867378
       0.4794821922175530
       0.5485221327368003
       0.5243351409670035
       0.4912305105362781
       0.5317465716257366
       0.5137899608231119
       0.5431667877635736