# vtk DataFile Version 3.0
GASDIN data file
ASCII
DATASET UNSTRUCTURED_GRID
POINTS 20624 double
0.000000 0.000000 0.000000
0.000600 -0.003200 0.000000
0.000600 0.003200 0.000000
0.002400 -0.006600 0.000000
0.002400 0.006400 0.000000
0.005400 -0.009600 0.000000
0.005400 0.009500 0.000000
0.009600 -0.012700 0.000000
0.009600 0.012700 0.000000
0.015000 -0.015800 0.000000
0.015000 0.015800 0.000000
0.021500 -0.018800 0.000000
0.021500 0.018800 0.000000
0.029200 -0.021800 0.000000
0.029200 0.021600 0.000000
0.038100 -0.024700 0.000000
0.038100 0.024500 0.000000
0.048000 -0.027600 0.000000
0.048000 0.027300 0.000000
0.059000 -0.030400 0.000000
0.059000 0.030000 0.000000
0.071100 -0.033200 0.000000
0.071100 0.032800 0.000000
0.084300 -0.035800 0.000000
0.084300 0.035500 0.000000
0.098400 -0.038400 0.000000
0.098400 0.038200 0.000000
0.113500 -0.040900 0.000000
0.113500 0.040700 0.000000
0.129500 -0.043300 0.000000
0.129500 0.043200 0.000000
0.146500 -0.045600 0.000000
0.146500 0.045600 0.000000
0.164200 -0.047800 0.000000
0.164200 0.047800 0.000000
0.182800 -0.049800 0.000000
0.182800 0.049900 0.000000
0.202200 -0.051700 0.000000
0.202200 0.051900 0.000000
0.222200 -0.053400 0.000000
0.222200 0.053800 0.000000
0.243000 -0.055000 0.000000
0.243000 0.055600 0.000000
0.264300 -0.056400 0.000000
0.264300 0.057100 0.000000
0.286200 -0.057500 0.000000
0.286200 0.058500 0.000000
0.308700 -0.058400 0.000000
0.308700 0.059700 0.000000
0.331600 -0.059000 0.000000
0.331600 0.060700 0.000000
0.354900 -0.059200 0.000000
0.354900 0.061600 0.000000
0.378500 -0.058900 0.000000
0.378500 0.062200 0.000000
0.402500 -0.058200 0.000000
0.402500 0.062600 0.000000
0.426600 -0.056900 0.000000
0.426600 0.062900 0.000000
0.451000 -0.055200 0.000000
0.451000 0.062900 0.000000
0.475500 -0.053000 0.000000
0.475500 0.062600 0.000000
0.500000 -0.050400 0.000000
0.500000 0.062100 0.000000
0.524500 -0.047600 0.000000
0.524500 0.061400 0.000000
0.549000 -0.044500 0.000000
0.549000 0.060300 0.000000
0.573400 -0.041300 0.000000
0.573400 0.059000 0.000000
0.597500 -0.037900 0.000000
0.597500 0.057300 0.000000
0.621500 -0.034600 0.000000
0.621500 0.055500 0.000000
0.645100 -0.031100 0.000000
0.645100 0.053400 0.000000
0.668500 -0.027700 0.000000
0.668500 0.051100 0.000000
0.691300 -0.024400 0.000000
0.691300 0.048600 0.000000
0.713800 -0.021200 0.000000
0.713800 0.046100 0.000000
0.735700 -0.018100 0.000000
0.735700 0.043400 0.000000
0.757100 -0.015200 0.000000
0.757100 0.040800 0.000000
0.777800 -0.012600 0.000000
0.777800 0.038000 0.000000
0.797900 -0.010100 0.000000
0.797900 0.035100 0.000000
0.817200 -0.007900 0.000000
0.817200 0.032300 0.000000
0.835800 -0.005900 0.000000
0.835800 0.029500 0.000000
0.853600 -0.004200 0.000000
0.853600 0.026700 0.000000
0.870500 -0.002700 0.000000
0.870500 0.024000 0.000000
0.886500 -0.001500 0.000000
0.886500 0.021300 0.000000
0.901600 -0.000500 0.000000
0.901600 0.018700 0.000000
0.915700 0.000300 0.000000
0.915700 0.016300 0.000000
0.928900 0.000800 0.000000
0.928900 0.013900 0.000000
0.941000 0.001100 0.000000
0.941000 0.011700 0.000000
0.952000 0.001300 0.000000
0.952000 0.009600 0.000000
0.961900 0.001300 0.000000
0.961900 0.007800 0.000000
0.970800 0.001100 0.000000
0.970800 0.006100 0.000000
0.978500 0.000900 0.000000
0.978500 0.004600 0.000000
0.985000 0.000700 0.000000
0.985000 0.003300 0.000000
0.990400 0.000500 0.000000
0.990400 0.002200 0.000000
0.994600 0.000300 0.000000
0.994600 0.001300 0.000000
0.997600 0.000100 0.000000
0.997600 0.000700 0.000000
0.999400 0.000000 0.000000
0.999400 0.000300 0.000000
1.000000 0.000000 0.000000
-0.500000 -1.000000 0.000000
1.500000 -1.000000 0.000000
1.500000 1.000000 0.000000
-0.500000 1.000000 0.000000
1.500000 -1.000000 0.005000
1.500000 1.000000 0.005000
-0.500000 1.000000 0.005000
-0.500000 -1.000000 0.005000
1.000000 0.000000 0.005000
0.999400 0.000300 0.005000
0.997600 0.000700 0.005000
0.994600 0.001300 0.005000
0.990400 0.002200 0.005000
0.985000 0.003300 0.005000
0.978500 0.004600 0.005000
0.970800 0.006100 0.005000
0.961900 0.007800 0.005000
0.952000 0.009600 0.005000
0.941000 0.011700 0.005000
0.928900 0.013900 0.005000
0.915700 0.016300 0.005000
0.901600 0.018700 0.005000
0.886500 0.021300 0.005000
0.870500 0.024000 0.005000
0.853600 0.026700 0.005000
0.835800 0.029500 0.005000
0.817200 0.032300 0.005000
0.797900 0.035100 0.005000
0.777800 0.038000 0.005000
0.757100 0.040800 0.005000
0.735700 0.043400 0.005000
0.713800 0.046100 0.005000
0.691300 0.048600 0.005000
0.668500 0.051100 0.005000
0.645100 0.053400 0.005000
0.621500 0.055500 0.005000
0.597500 0.057300 0.005000
0.573400 0.059000 0.005000
0.549000 0.060300 0.005000
0.524500 0.061400 0.005000
0.500000 0.062100 0.005000
0.475500 0.062600 0.005000
0.451000 0.062900 0.005000
0.426600 0.062900 0.005000
0.402500 0.062600 0.005000
0.378500 0.062200 0.005000
0.354900 0.061600 0.005000
0.331600 0.060700 0.005000
0.308700 0.059700 0.005000
0.286200 0.058500 0.005000
0.264300 0.057100 0.005000
0.243000 0.055600 0.005000
0.222200 0.053800 0.005000
0.202200 0.051900 0.005000
0.182800 0.049900 0.005000
0.164200 0.047800 0.005000
0.146500 0.045600 0.005000
0.129500 0.043200 0.005000
0.113500 0.040700 0.005000
0.098400 0.038200 0.005000
0.084300 0.035500 0.005000
0.071100 0.032800 0.005000
0.059000 0.030000 0.005000
0.048000 0.027300 0.005000
0.038100 0.024500 0.005000
0.029200 0.021600 0.005000
0.021500 0.018800 0.005000
0.015000 0.015800 0.005000
0.009600 0.012700 0.005000
0.005400 0.009500 0.005000
0.002400 0.006400 0.005000
0.000600 0.003200 0.005000
0.000000 0.000000 0.005000
0.000600 -0.003200 0.005000
0.002400 -0.006600 0.005000
0.005400 -0.009600 0.005000
0.009600 -0.012700 0.005000
0.015000 -0.015800 0.005000
0.021500 -0.018800 0.005000
0.029200 -0.021800 0.005000
0.038100 -0.024700 0.005000
0.048000 -0.027600 0.005000
0.059000 -0.030400 0.005000
0.071100 -0.033200 0.005000
0.084300 -0.035800 0.005000
0.098400 -0.038400 0.005000
0.113500 -0.040900 0.005000
0.129500 -0.043300 0.005000
0.146500 -0.045600 0.005000
0.164200 -0.047800 0.005000
0.182800 -0.049800 0.005000
0.202200 -0.051700 0.005000
0.222200 -0.053400 0.005000
0.243000 -0.055000 0.005000
0.264300 -0.056400 0.005000
0.286200 -0.057500 0.005000
0.308700 -0.058400 0.005000
0.331600 -0.059000 0.005000
0.354900 -0.059200 0.005000
0.378500 -0.058900 0.005000
0.402500 -0.058200 0.005000
0.426600 -0.056900 0.005000
0.451000 -0.055200 0.005000
0.475500 -0.053000 0.005000
0.500000 -0.050400 0.005000
0.524500 -0.047600 0.005000
0.549000 -0.044500 0.005000
0.573400 -0.041300 0.005000
0.597500 -0.037900 0.005000
0.621500 -0.034600 0.005000
0.645100 -0.031100 0.005000
0.668500 -0.027700 0.005000
0.691300 -0.024400 0.005000
0.713800 -0.021200 0.005000
0.735700 -0.018100 0.005000
0.757100 -0.015200 0.005000
0.777800 -0.012600 0.005000
0.797900 -0.010100 0.005000
0.817200 -0.007900 0.005000
0.835800 -0.005900 0.005000
0.853600 -0.004200 0.005000
0.870500 -0.002700 0.005000
0.886500 -0.001500 0.005000
0.901600 -0.000500 0.005000
0.915700 0.000300 0.005000
0.928900 0.000800 0.005000
0.941000 0.001100 0.005000
0.952000 0.001300 0.005000
0.961900 0.001300 0.005000
0.970800 0.001100 0.005000
0.978500 0.000900 0.005000
0.985000 0.000700 0.005000
0.990400 0.000500 0.005000
0.994600 0.000300 0.005000
0.997600 0.000100 0.005000
0.999400 0.000000 0.005000
1.441176 1.000000 0.000000
1.382353 1.000000 0.000000
1.323529 1.000000 0.000000
1.264706 1.000000 0.000000
1.205882 1.000000 0.000000
1.147059 1.000000 0.000000
1.088235 1.000000 0.000000
1.029412 1.000000 0.000000
0.970588 1.000000 0.000000
0.911765 1.000000 0.000000
0.852941 1.000000 0.000000
0.794118 1.000000 0.000000
0.735294 1.000000 0.000000
0.676471 1.000000 0.000000
0.617647 1.000000 0.000000
0.558824 1.000000 0.000000
0.500000 1.000000 0.000000
0.441176 1.000000 0.000000
0.382353 1.000000 0.000000
0.323529 1.000000 0.000000
0.264706 1.000000 0.000000
0.205882 1.000000 0.000000
0.147059 1.000000 0.000000
0.088235 1.000000 0.000000
0.029412 1.000000 0.000000
-0.029412 1.000000 0.000000
-0.088235 1.000000 0.000000
-0.147059 1.000000 0.000000
-0.205882 1.000000 0.000000
-0.264706 1.000000 0.000000
-0.323529 1.000000 0.000000
-0.382353 1.000000 0.000000
-0.441176 1.000000 0.000000
-0.500000 0.941176 0.000000
-0.500000 0.882353 0.000000
-0.500000 0.823529 0.000000
-0.500000 0.764706 0.000000
-0.500000 0.705882 0.000000
-0.500000 0.647059 0.000000
-0.500000 0.588235 0.000000
-0.500000 0.529412 0.000000
-0.500000 0.470588 0.000000
-0.500000 0.411765 0.000000
-0.500000 0.352941 0.000000
-0.500000 0.294118 0.000000
-0.500000 0.235294 0.000000
-0.500000 0.176471 0.000000
-0.500000 0.117647 0.000000
-0.500000 0.058824 0.000000
-0.500000 0.000000 0.000000
-0.500000 -0.058824 0.000000
-0.500000 -0.117647 0.000000
-0.500000 -0.176471 0.000000
-0.500000 -0.235294 0.000000
-0.500000 -0.294118 0.000000
-0.500000 -0.352941 0.000000
-0.500000 -0.411765 0.000000
-0.500000 -0.470588 0.000000
-0.500000 -0.529412 0.000000
-0.500000 -0.588235 0.000000
-0.500000 -0.647059 0.000000
-0.500000 -0.705882 0.000000
-0.500000 -0.764706 0.000000
-0.500000 -0.823529 0.000000
-0.500000 -0.882353 0.000000
-0.500000 -0.941176 0.000000
-0.441176 -1.000000 0.000000
-0.382353 -1.000000 0.000000
-0.323529 -1.000000 0.000000
-0.264706 -1.000000 0.000000
-0.205882 -1.000000 0.000000
-0.147059 -1.000000 0.000000
-0.088235 -1.000000 0.000000
-0.029412 -1.000000 0.000000
0.029412 -1.000000 0.000000
0.088235 -1.000000 0.000000
0.147059 -1.000000 0.000000
0.205882 -1.000000 0.000000
0.264706 -1.000000 0.000000
0.323529 -1.000000 0.000000
0.382353 -1.000000 0.000000
0.441176 -1.000000 0.000000
0.500000 -1.000000 0.000000
0.558824 -1.000000 0.000000
0.617647 -1.000000 0.000000
0.676471 -1.000000 0.000000
0.735294 -1.000000 0.000000
0.794118 -1.000000 0.000000
0.852941 -1.000000 0.000000
0.911765 -1.000000 0.000000
0.970588 -1.000000 0.000000
1.029412 -1.000000 0.000000
1.088235 -1.000000 0.000000
1.147059 -1.000000 0.000000
1.205882 -1.000000 0.000000
[...]
CELL_DATA 11164
SCALARS Density double 1
LOOKUP_TABLE default
       0.5296446550484482
       0.5600920108707010
       0.5470992186003246
       0.5333785311627952
       0.5422760221548972
       0.5438135623409052
       0.5315367335513284
       0.5174090032537393
       0.5334399709390257
       0.5211744384667624
       0.5131430509107512
       0.5607936997716835
       0.5580422230883529
       0.5590426003492677
       0.5395738251425561
       0.5267572417945934
       0.5629957265794636
       0.5376480433992734
       0.5628199336817977
       0.5602706505754458
       0.5385971192200482
       0.5311647176809925
       0.5383274349629661
       0.5628613406525123
       0.5109368959169123
       0.5467185496202780
       0.5574475467491677
       0.5109502696334525
       0.5407558518142106
       0.5572605045785989
       0.5159253213430285
       0.5635755178755040
       0.5283005298220236
       0.5734682720409910
       0.5299470208517257
       0.5628029290591905
       0.5452198088487101
       0.5415339380800583
       0.5591320649932165
       0.5536816549474581
       0.5560361978383174
       0.5631611074841132
       0.5303136255106765
       0.5434084576263986
       0.5013900454276004
       0.5515174474893468
       0.5534763656970736
       0.5432936484964344
       0.5534392006790624
       0.5303852224564073
       0.5616596188738834
       0.5290938036650311
       0.5729498135153576
       0.5312113691547663
       0.5523444061403237
       0.5542029322459470
       0.5267664588526086
       0.5417274619228215
       0.5693101357496632
       0.5397355347217354
       0.5645577085901907
       0.5294198658785929
       0.5397097781380823
       0.5496137988623119
       0.5187683069576944
       0.5353246259347840
       0.5673563326334514
       0.5471976519870121
       0.5509128658827982
       0.5676821652608869
       0.5939387222068342
       0.5560373309072123
       0.5412202509097926
       0.5213023298066439
       0.5495130394573823
       0.5358028385180436
       0.5196145141924622
       0.5339430370033822
       0.5342254939964656
       0.5599584475602640
       0.5561432502411825
       0.5546954814967507
       0.5670708496262139
       0.5512662201467178
       0.5639318179971817
       0.5768080759365388
       0.5403229612952667
       0.5374943353229513
       0.5465031165034040
       0.5695197529497821
       0.5109614035980568
       0.5392191254965862
       0.5202675436966497
       0.5623547835983859
       0.5364105231425480
       0.5564576360668599
       0.5314883149806425
       0.5489071898307406
       0.5550238405022873
       0.5241649410655753
       0.5385030321197136
       0.5607566009009693
       0.5509985818231132
       0.5307558541667637
       0.5449583425187225
       0.5521490876278784
       0.5617163693659858
       0.5509795917592426
       0.5497742125856671
       0.5227408154999184
       0.5807031303476935
       0.5629173268565294
       0.5504029956244690
       0.5453366563348412
       0.5255473786133595
       0.5129742013511560
       0.5298433303631687
       0.5196162250413725
       0.5547393260085841
       0.5711191801927760
       0.5308849493647153
       0.5321509949699421
       0.5514735678180874
       0.5167303712753314
       0.5487187847423698
       0.5409505665312399
       0.5295731610959430
       0.5269596083596571
       0.5338297859623258
       0.5608486534222771
       0.5347112448254933
       0.5488623837417453
       0.5534219154989596
       0.5440814582011217
       0.5772582886871028
       0.5396406850850735
       0.5451805293416896
       0.5610562572545614
       0.5701834003958258
       0.5435566923876278
       0.5485509118524470
       0.5618770794203288
       0.5493017249141035
       0.5568712851657105
       0.5374747538653675
       0.5189008876422214
       0.5679225123701241
       0.5075640707827799
       0.5615839645351010
       0.5666751824352368
       0.5228470709116362
       0.5458775211729477
       0.5258971995981789
       0.5599720581877160
       0.5371340210650747
       0.5413029839060856
       0.5645904164155678
       0.5462221007954529
       0.5541434643400781
       0.5608833675319385
       0.5245121620015449
       0.5016622619853827
       0.5566386395542565
       0.5523163148922171
       0.5234058577989451
       0.5564718634659959
       0.5488184519070823
       0.5680249097112957
       0.5562482631726208
       0.5609528269532922
       0.5299514895283111
       0.5283719721586573
       0.5704318989904688
       0.5415890747997132
       0.5515865176065031
       0.5547216641453465
       0.5794147294427464
       0.5515925017448639
       0.5418811895431631
       0.5478685303178897
       0.5616221598409603
       0.5253789322822948
       0.5567202711803533
       0.5607434645463775
       0.5607543481674898
       0.5208242435957895
       0.5627420701808727
       0.5618405512555513
       0.5460719111477382
       0.5297242700500789
       0.5456135819952970
       0.5360548080183487
       0.5504064491772469
       0.5564949521102389
       0.5661238105224119
       0.5484639948126570
       0.5361380421649408
       0.5431901210525797
       0.5291637553038853
       0.5445376234421369
       0.5526370214726720
       0.5276751046881617
       0.5280490830588432
       0.5565518337913522
       0.5289455469245007
       0.5360117497536562
       0.5307556560345558
       0.5695917513319633
       0.5561230816872627
       0.5381069266881189
       0.5158341467639239
       0.5387213342376139
       0.5539474231537260
       0.5679579371056744
       0.5582404975032399
       0.5606066516717685
       0.5295469403021079
       0.5329530307343239
       0.5494995953104342
       0.5123558022114961
       0.5447962363390298
       0.5247040870397461
       0.5193116821435557
       0.5171083428381859
       0.5474043582006909
       0.5542897510221734
       0.5547832180223663
       0.5170160548802992
       0.5218455860020104
       0.5627076625431100
       0.5517349730004686
       0.5523080534348001
       0.5396815500245342
       0.5600306604727233
       0.5612707060753853
       0.5646676197371858
       0.5620728428192932
       0.5593084312058559
       0.5604977848071726
       0.5700813896397148
       0.5478110376970114
       0.5525303265404129
       0.5269771762429979
       0.5644941040111189
       0.5564905054039809
       0.5155879583121090
       0.5351674643038276
       0.5146144756099817
       0.5332958189970872
       0.5592792211355463
       0.5309354233882464
       0.5603806431196930
       0.5573877144047999
       0.5142263910447860
       0.5683533719744478
       0.5525831334335433
       0.5555735396391278
       0.5579145779729853
       0.5448220424743448
       0.5507705058847336
       0.5397828109387166
       0.5257669411174435
       0.5449155770128832
       0.5379690418911093
       0.5544071578660080
       0.5548817018740407
       0.5656668693588095
       0.5713238398680841
       0.5407228999867411
       0.5438045466403971
       0.5304254522445870
       0.5583296056078211
       0.5656167667108130
       0.5572788188146152
       0.5638434514558275
       0.5440521557472812
       0.5604171370666668
       0.5713600389845674
       0.5604139135821687
       0.5308513781271513
       0.5500531576881141
       0.5195859461270367
       0.5541729085316790
       0.5525570314253264
       0.5522874320029957
       0.5617436190844568
       0.5512988646537469
       0.5297801695128311
       0.5439046331200480
       0.5592140196734111
       0.5189348971335612
       0.5556119268330765
       0.5666093201799174
       0.5566241992993086
       0.5571972588586022
       0.5605219859048028
       0.5696594024714162
       0.5613570310721760
       0.5688973851447205
       0.5193661983121766
       0.5607278745042614
       0.5258913673739722
       0.5622982622648368
       0.5440463673907817
       0.5628968847869953
       0.5470512560293593
       0.5478377519434053
       0.5172334838311030
       0.5633182564447639
       0.5309152330111157
       0.5652226414917970
       0.5658424816818062
       0.5441970193510320
       0.5176061302295125
       0.5316492336083815
       0.5373645594824811
       0.5453499185705512
       0.5314522526975517
       0.5551713369685286
       0.5501681064881542
       0.5620487877956095
       0.5360851469480830
       0.5334009536176424
       0.5539875435242342
       0.5576457289139168
       0.5695730695574307
       0.5571975967547789
       0.5451647459724387
       0.5295614838035614
       0.5549573791484524
       0.5291547198542592
       0.5293389222874170
       0.5262647550251470
       0.5548894667224689
       0.5539065583428308
       0.5646694797935590
       0.5581766705553601
       0.5440386580781665
       0.5653632839569048
       0.5608571998600269
       0.5408032124652242
       0.5447314997688005
       0.5445853832314422
       0.5607298236030414
       0.5191542636699854
       0.5519998585858716
       0.5584402330739773
       0.5437255044114896
       0.5283489720276791
       0.5602340198505376
       0.5640486051504932
       0.5545307247414496
       0.5199217594310116
       0.5576842677238542
       0.5251905268345983
       0.5549887007762990
       0.5531151152673179
       0.5586759504505789
       0.5685091114497974
       0.5342905062776884
       0.5627194127252555
       0.5706943339420859
       0.5384066288307793
       0.5128513344115241
       0.5441417673420749
       0.5356211597822199
       0.5545283711315644
       0.5548991807149122
       0.5611349103863654
       0.5533444532080176
       0.5547901311670931
       0.5291357084507199
       0.5627296399933630
       0.5569625152894955
       0.5627125669991959
       0.5581865499057415
       0.5234674885599465
       0.5891311676143790
       0.5484755804308127
       0.5320323924508062
       0.5287037798200820
       0.5706665918756468
       0.5203170550622116
       0.5762007151336266
       0.5670867884560403
       0.5438819022957913
       0.5342785817034407
       0.5565583349600325
       0.5227628589491202
       0.5616448679846257
       0.5589245945451504
       0.5699129164017606
       0.5406549731820182
       0.5523397645491906
       0.5624802089822100
       0.5679453516134294
       0.5311047464043436
       0.5596399070422664
       0.5101981511533591
       0.5608958059542669
       0.5530369465511327
       0.5458589557390362
       0.5509715322707617
       0.5335061576549185
       0.5465047387826107
       0.5447678632187323
       0.5508434751001084
       0.5605695812644719
       0.5598180190053971
       0.5615023440774758
       0.5188261142877139
       0.5908890675606336
       0.5620267212121374
       0.5655278741484489
       0.5592664983609544
       0.5536103945637139
       0.5554727462840401
       0.5525204116743216
       0.5603657133884385
       0.5587203534479841
       0.5472500547323659
       0.5405718341782676
       0.5529028741107633
       0.5260612786999656
       0.5589505210867667
       0.5676570720271882
       0.5631403782629185
       0.5464430795405166
       0.5695207330807478
       0.5672516882250026
       0.5541253321382974
       0.5198324903250967
       0.5710345516765194
       0.5584491946143916
       0.5206046323330648
       0.5299945494323829
       0.5205296992806768
       0.5622209692744601
       0.5076726759915976
       0.5673953286943696
       0.5215655220451927
       0.5504027994372939
       0.5061642214503366
       0.5344135664682296
       0.5323794812970479
       0.5312844260091694
       0.5605491776770712
       0.5596617853219171
       0.5353374520140107
       0.5330307101053020
       0.5662326380835986
       0.5471063931268143
       0.5405595612463906
       0.5523236051566063
       0.5762038318638687
       0.5548529857517664
       0.5280756955669408
       0.5246894167947759
       0.5560108225875228
       0.5254428460143562
       0.5355651473344508
       0.5358747918952727
       0.5602277828660761
       0.5616599485953598
       0.5681726662411795
       0.5374776585450898
       0.5381033557347227
       0.5616662119266607
       0.5202360534683114
       0.5245375261471906
       0.5460265129367625
       0.5188574901302151
       0.5304803391592072
       0.5583617686333082
       0.5528186301433724
       0.5422022805649632
       0.5298042165778525
       0.5535637484301847
       0.5282977948630115
       0.5488878391027768
       0.5226972652151632
       0.5685190752754616
       0.5606176202348677
       0.5631660075536767
       0.5545637492320817
       0.5610838085196834
       0.5274100638255464
       0.5652597145930708
       0.5467473968580043
       0.5470268706931734
       0.5502028223951476
       0.5620494735342683
       0.5605536484295869
       0.5581667164150184
       0.5386093997514344
       0.5607540917680597
       0.5437692057067975
       0.5458057799731986
       0.5463516490296557
       0.5637809918076354
       0.5613000375030557
       0.5692761938016481
       0.5301212479755935
       0.5409199972608307
       0.5552436295570117
       0.5546960825321613
       0.5209941031622386
       0.5379184968784045
       0.5583517279768299
       0.5796411501843832
       0.5633784534103082
       0.5478432872009186
       0.5602087718287125
       0.5466347446124080
       0.5442330827081093
       0.5590125625278790
       0.5370301760926862
       0.5505414931699461
       0.5436002545362499
       0.5252243367867528
       0.5320620798649022
       0.5307734152716104
       0.5618003387015715
       0.5900254924819378
       0.5583127409167005
       0.5504543570423360
       0.5257965590440749
       0.5755792676347770
       0.5564890153208027
       0.5553588830344341
       0.5676995957754022
       0.5320828371847959
       0.5614631870900534
       0.5538567533820559
       0.5472763253080012
       0.5635093919012737
       0.5543932452841313
       0.5623510725638409
       0.5387692103819136
       0.5568902136535354
       0.5590312477488878
       0.5550632085584780
       0.5227405322724514
       0.5594763893357716
       0.5642133136382900
       0.5376191782532882
       0.5374658388663361
       0.5397961253374423
       0.5900936545425093
       0.5615899138738969
       0.5592686335841222
       0.5247373330151209
       0.5496706951555890
       0.5547710987371491
       0.5445728802313999
       0.5560899953496163
       0.5289018361666343
       0.5515627016574275
       0.5664764433598444
       0.5352453465734335
       0.5465526116015720
       0.5641968540934645
       0.5559351666118755
       0.5345992439410941
       0.5162225123969745
       0.5608732470007317
       0.5686465775685375
       0.5290572153358526
       0.5616844300762519
       0.5356359281980675
       0.5606679897364961
       0.5233248512540718
       0.5393759776898994
       0.5562501184015971
       0.5280241788254031
       0.5617640158385625
       0.5384967989734664
       0.5737232831373711
       0.5528150183098265
       0.5450264946599427
       0.5685937759326049
       0.5666563746381463
       0.5406712135322902
       0.5171617307286890
       0.5279537420542449
       0.5175805848134576
       0.5315407782835551
       0.5476714925904446
       0.5229594587541079
       0.5591571559412667
       0.5520796506490550
       0.5556610947761016
       0.5603992152164559
       0.5613595456672228
       0.5169753709107351
       0.5264867498458292
       0.5316057131531626
       0.5464380790667767
       0.5489797400926445
       0.5322673421979176
       0.5328130111426089
       0.5549860005864087
       0.5661219237143407
       0.5194186253072990
       0.5500448161049066
       0.5479440191529682
       0.5685106404884618
       0.5225754046725671
       0.5602773676868151
       0.5857621461870522
       0.5596418294442878
       0.5324731645542706
       0.5519381658753120
       0.5471830206264199
       0.5638845224768551
       0.5344992042917233
       0.5192561777994510
       0.5307961077938692
       0.5435349313633445
       0.5542503005884289
       0.5441436649312463
       0.5283596592583383
       0.5158621370300719
       0.5083758805099021
       0.5798139832276336
       0.5452149254423339
       0.5400377249823555
       0.5345152930257664
       0.5523820053753830
       0.5467281936613472
       0.5475271971406729
       0.5328978243227196
       0.5197327859157878
       0.5457438909113836
       0.5526649180897887
       0.5622973810270934
       0.5390980664432027
       0.5461943897523065
       0.5662510735146049
       0.5595197144374345
       0.5610836395131699
       0.5146358706989974
       0.5220244880425863
       0.5709241447823441
       0.5317699235967384
       0.5124110212337821
       0.5940384013687099
       0.5723528072088907
       0.5517051426818488
       0.5574267580134022
       0.5151198106559419
       0.5568992980741452
       0.5581260043955903
       0.5440359233961338
       0.5406606606598467
       0.5588479770271030
       0.5593792287626358
       0.5369307995692392
       0.5316211573570622
       0.5230335303850844
       0.5546645384208333
       0.5332469251396975
       0.5340325430691104
       0.5606468619286488
       0.5507290984712109
       0.5292418785571883
       0.5253517537857708
       0.5790201963138665
       0.5216921537820691
       0.5639317607497966
       0.5558199995740548
       0.5619215338433419
       0.5651317856750374
       0.5706808502693771
       0.5672421307241814
       0.5250678167943945
       0.5178552882739347
       0.5619354305362966
       0.5688401868978472
       0.5544597513842732
       0.5179738765997004
       0.5471475979038061
       0.5560878559050765
       0.5665203574650498
       0.5322904838787370
       0.5600288991259138
       0.5615648537869581
       0.5415826153024259
       0.5339445020401922
       0.5567688914056618
       0.5441794787035583
       0.5447142792924466
       0.5687794062156289
       0.5531568549688243
       0.5496591454723440
       0.5440126566576682
       0.5454926667105061
       0.5503318270967477
       0.5196486927001801
       0.5866551548720734
       0.5207656404207257
       0.5366945265889141
       0.5422285753457107
       0.5179474719380036
       0.5646243711305624
       0.5568774444439982
       0.5550689339640438
       0.5684555770030761
       0.5382988523559585
       0.5606650399559743
       0.5555897535060947
       0.5628740874767345
       0.5614792672162833
       0.5632614556464642
       0.5561112472060969
       0.5561307237931928
       0.5554571373292583
       0.5516644045781601
       0.5659002987855516
       0.5673264016110311
       0.5224886251773768
       0.5592240502604678
       0.5410762650334404
       0.5534410250919962
       0.5558325116633415
       0.5194732085982084
       0.5562277039137313
       0.5760064206923223
       0.5370145082211238
       0.5128271747972404
       0.5391310054732855
       0.5721565991255186
       0.5184450257948627
       0.5575617704402649
       0.5360322406407465
       0.5323995552620157
       0.5182835547127835
       0.5442282283310272
       0.5660681575782556
       0.5259750059030351
       0.5259989683037890
       0.5481831881185649
       0.5169095299949507
       0.5631806290040839
       0.5578925832876509
       0.5526141957262000
       0.5532777801406724
       0.5677335672292140
       0.5643952195494205
       0.5584389341377370
       0.5710358362793344
       0.5427170678951257
       0.5620242024711681
       0.5666681882691077
       0.5668617739170324
       0.5563302096813734
       0.5563188091083189
       0.5600385154509271
       0.5322741946992084
       0.5088108447381304
       0.5670421735354860
       0.5464530233469794
       0.5197142090640942
       0.5528410029309896
       0.5381453708536950
       0.5626538553863750