# vtk DataFile Version 3.0
GASDIN data file
ASCII
DATASET UNSTRUCTURED_GRID
POINTS 20624 double
0.000000 0.000000 0.000000
0.000600 -0.003200 0.000000
0.000600 0.003200 0.000000
0.002400 -0.006600 0.000000
0.002400 0.006400 0.000000
0.005400 -0.009600 0.000000
0.005400 0.009500 0.000000
0.009600 -0.012700 0.000000
0.009600 0.012700 0.000000
0.015000 -0.015800 0.000000
0.015000 0.015800 0.000000
0.021500 -0.018800 0.000000
0.021500 0.018800 0.000000
0.029200 -0.021800 0.000000
0.029200 0.021600 0.000000
0.038100 -0.024700 0.000000
0.038100 0.024500 0.000000
0.048000 -0.027600 0.000000
0.048000 0.027300 0.000000
0.059000 -0.030400 0.000000
0.059000 0.030000 0.000000
0.071100 -0.033200 0.000000
0.071100 0.032800 0.000000
0.084300 -0.035800 0.000000
0.084300 0.035500 0.000000
0.098400 -0.038400 0.000000
0.098400 0.038200 0.000000
0.113500 -0.040900 0.000000
0.113500 0.040700 0.000000
0.129500 -0.043300 0.000000
0.129500 0.043200 0.000000
0.146500 -0.045600 0.000000
0.146500 0.045600 0.000000
0.164200 -0.047800 0.000000
0.164200 0.047800 0.000000
0.182800 -0.049800 0.000000
0.182800 0.049900 0.000000
0.202200 -0.051700 0.000000
0.202200 0.051900 0.000000
0.222200 -0.053400 0.000000
0.222200 0.053800 0.000000
0.243000 -0.055000 0.000000
0.243000 0.055600 0.000000
0.264300 -0.056400 0.000000
0.264300 0.057100 0.000000
0.286200 -0.057500 0.000000
0.286200 0.058500 0.000000
0.308700 -0.058400 0.000000
0.308700 0.059700 0.000000
0.331600 -0.059000 0.000000
0.331600 0.060700 0.000000
0.354900 -0.059200 0.000000
0.354900 0.061600 0.000000
0.378500 -0.058900 0.000000
0.378500 0.062200 0.000000
0.402500 -0.058200 0.000000
0.402500 0.062600 0.000000
0.426600 -0.056900 0.000000
0.426600 0.062900 0.000000
0.451000 -0.055200 0.000000
0.451000 0.062900 0.000000
0.475500 -0.053000 0.000000
0.475500 0.062600 0.000000
0.500000 -0.050400 0.000000
0.500000 0.062100 0.000000
0.524500 -0.047600 0.000000
0.524500 0.061400 0.000000
0.549000 -0.044500 0.000000
0.549000 0.060300 0.000000
0.573400 -0.041300 0.000000
0.573400 0.059000 0.000000
0.597500 -0.037900 0.000000
0.597500 0.057300 0.000000
0.621500 -0.034600 0.000000
0.621500 0.055500 0.000000
0.645100 -0.031100 0.000000
0.645100 0.053400 0.000000
0.668500 -0.027700 0.000000
0.668500 0.051100 0.000000
0.691300 -0.024400 0.000000
0.691300 0.048600 0.000000
0.713800 -0.021200 0.000000
0.713800 0.046100 0.000000
0.735700 -0.018100 0.000000
0.735700 0.043400 0.000000
0.757100 -0.015200 0.000000
0.757100 0.040800 0.000000
0.777800 -0.012600 0.000000
0.777800 0.038000 0.000000
0.797900 -0.010100 0.000000
0.797900 0.035100 0.000000
0.817200 -0.007900 0.000000
0.817200 0.032300 0.000000
0.835800 -0.005900 0.000000
0.835800 0.029500 0.000000
0.853600 -0.004200 0.000000
0.853600 0.026700 0.000000
0.870500 -0.002700 0.000000
0.870500 0.024000 0.000000
0.886500 -0.001500 0.000000
0.886500 0.021300 0.000000
0.901600 -0.000500 0.000000
0.901600 0.018700 0.000000
0.915700 0.000300 0.000000
0.915700 0.016300 0.000000
0.928900 0.000800 0.000000
0.928900 0.013900 0.000000
0.941000 0.001100 0.000000
0.941000 0.011700 0.000000
0.952000 0.001300 0.000000
0.952000 0.009600 0.000000
0.961900 0.001300 0.000000
0.961900 0.007800 0.000000
0.970800 0.001100 0.000000
0.970800 0.006100 0.000000
0.978500 0.000900 0.000000
0.978500 0.004600 0.000000
0.985000 0.000700 0.000000
0.985000 0.003300 0.000000
0.990400 0.000500 0.000000
0.990400 0.002200 0.000000
0.994600 0.000300 0.000000
0.994600 0.001300 0.000000
0.997600 0.000100 0.000000
0.997600 0.000700 0.000000
0.999400 0.000000 0.000000
0.999400 0.000300 0.000000
1.000000 0.000000 0.000000
-0.500000 -1.000000 0.000000
1.500000 -1.000000 0.000000
1.500000 1.000000 0.000000
-0.500000 1.000000 0.000000
1.500000 -1.000000 0.005000
1.500000 1.000000 0.005000
-0.500000 1.000000 0.005000
-0.500000 -1.000000 0.005000
1.000000 0.000000 0.005000
0.999400 0.000300 0.005000
0.997600 0.000700 0.005000
0.994600 0.001300 0.005000
0.990400 0.002200 0.005000
0.985000 0.003300 0.005000
0.978500 0.004600 0.005000
0.970800 0.006100 0.005000
0.961900 0.007800 0.005000
0.952000 0.009600 0.005000
0.941000 0.011700 0.005000
0.928900 0.013900 0.005000
0.915700 0.016300 0.005000
0.901600 0.018700 0.005000
0.886500 0.021300 0.005000
0.870500 0.024000 0.005000
0.853600 0.026700 0.005000
0.835800 0.029500 0.005000
0.817200 0.032300 0.005000
0.797900 0.035100 0.005000
0.777800 0.038000 0.005000
0.757100 0.040800 0.005000
0.735700 0.043400 0.005000
0.713800 0.046100 0.005000
0.691300 0.048600 0.005000
0.668500 0.051100 0.005000
0.645100 0.053400 0.005000
0.621500 0.055500 0.005000
0.597500 0.057300 0.005000
0.573400 0.059000 0.005000
0.549000 0.060300 0.005000
0.524500 0.061400 0.005000
0.500000 0.062100 0.005000
0.475500 0.062600 0.005000
0.451000 0.062900 0.005000
0.426600 0.062900 0.005000
0.402500 0.062600 0.005000
0.378500 0.062200 0.005000
0.354900 0.061600 0.005000
0.331600 0.060700 0.005000
0.308700 0.059700 0.005000
0.286200 0.058500 0.005000
0.264300 0.057100 0.005000
0.243000 0.055600 0.005000
0.222200 0.053800 0.005000
0.202200 0.051900 0.005000
0.182800 0.049900 0.005000
0.164200 0.047800 0.005000
0.146500 0.045600 0.005000
0.129500 0.043200 0.005000
0.113500 0.040700 0.005000
0.098400 0.038200 0.005000
0.084300 0.035500 0.005000
0.071100 0.032800 0.005000
0.059000 0.030000 0.005000
0.048000 0.027300 0.005000
0.038100 0.024500 0.005000
0.029200 0.021600 0.005000
0.021500 0.018800 0.005000
0.015000 0.015800 0.005000
0.009600 0.012700 0.005000
0.005400 0.009500 0.005000
0.002400 0.006400 0.005000
0.000600 0.003200 0.005000
0.000000 0.000000 0.005000
0.000600 -0.003200 0.005000
0.002400 -0.006600 0.005000
0.005400 -0.009600 0.005000
0.009600 -0.012700 0.005000
0.015000 -0.015800 0.005000
0.021500 -0.018800 0.005000
0.029200 -0.021800 0.005000
0.038100 -0.024700 0.005000
0.048000 -0.027600 0.005000
0.059000 -0.030400 0.005000
0.071100 -0.033200 0.005000
0.084300 -0.035800 0.005000
0.098400 -0.038400 0.005000
0.113500 -0.040900 0.005000
0.129500 -0.043300 0.005000
0.146500 -0.045600 0.005000
0.164200 -0.047800 0.005000
0.182800 -0.049800 0.005000
0.202200 -0.051700 0.005000
0.222200 -0.053400 0.005000
0.243000 -0.055000 0.005000
0.264300 -0.056400 0.005000
0.286200 -0.057500 0.005000
0.308700 -0.058400 0.005000
0.331600 -0.059000 0.005000
0.354900 -0.059200 0.005000
0.378500 -0.058900 0.005000
0.402500 -0.058200 0.005000
0.426600 -0.056900 0.005000
0.451000 -0.055200 0.005000
0.475500 -0.053000 0.005000
0.500000 -0.050400 0.005000
0.524500 -0.047600 0.005000
0.549000 -0.044500 0.005000
0.573400 -0.041300 0.005000
0.597500 -0.037900 0.005000
0.621500 -0.034600 0.005000
0.645100 -0.031100 0.005000
0.668500 -0.027700 0.005000
0.691300 -0.024400 0.005000
0.713800 -0.021200 0.005000
0.735700 -0.018100 0.005000
0.757100 -0.015200 0.005000
0.777800 -0.012600 0.005000
0.797900 -0.010100 0.005000
0.817200 -0.007900 0.005000
0.835800 -0.005900 0.005000
0.853600 -0.004200 0.005000
0.870500 -0.002700 0.005000
0.886500 -0.001500 0.005000
0.901600 -0.000500 0.005000
0.915700 0.000300 0.005000
0.928900 0.000800 0.005000
0.941000 0.001100 0.005000
0.952000 0.001300 0.005000
0.961900 0.001300 0.005000
0.970800 0.001100 0.005000
0.978500 0.000900 0.005000
0.985000 0.000700 0.005000
0.990400 0.000500 0.005000
0.994600 0.000300 0.005000
0.997600 0.000100 0.005000
0.999400 0.000000 0.005000
1.441176 1.000000 0.000000
1.382353 1.000000 0.000000
1.323529 1.000000 0.000000
1.264706 1.000000 0.000000
1.205882 1.000000 0.000000
1.147059 1.000000 0.000000
1.088235 1.000000 0.000000
1.029412 1.000000 0.000000
0.970588 1.000000 0.000000
0.911765 1.000000 0.000000
0.852941 1.000000 0.000000
0.794118 1.000000 0.000000
0.735294 1.000000 0.000000
0.676471 1.000000 0.000000
0.617647 1.000000 0.000000
0.558824 1.000000 0.000000
0.500000 1.000000 0.000000
0.441176 1.000000 0.000000
0.382353 1.000000 0.000000
0.323529 1.000000 0.000000
0.264706 1.000000 0.000000
0.205882 1.000000 0.000000
0.147059 1.000000 0.000000
0.088235 1.000000 0.000000
0.029412 1.000000 0.000000
-0.029412 1.000000 0.000000
-0.088235 1.000000 0.000000
-0.147059 1.000000 0.000000
-0.205882 1.000000 0.000000
-0.264706 1.000000 0.000000
-0.323529 1.000000 0.000000
-0.382353 1.000000 0.000000
-0.441176 1.000000 0.000000
-0.500000 0.941176 0.000000
-0.500000 0.882353 0.000000
-0.500000 0.823529 0.000000
-0.500000 0.764706 0.000000
-0.500000 0.705882 0.000000
-0.500000 0.647059 0.000000
-0.500000 0.588235 0.000000
-0.500000 0.529412 0.000000
-0.500000 0.470588 0.000000
-0.500000 0.411765 0.000000
-0.500000 0.352941 0.000000
-0.500000 0.294118 0.000000
-0.500000 0.235294 0.000000
-0.500000 0.176471 0.000000
-0.500000 0.117647 0.000000
-0.500000 0.058824 0.000000
-0.500000 0.000000 0.000000
-0.500000 -0.058824 0.000000
-0.500000 -0.117647 0.000000
-0.500000 -0.176471 0.000000
-0.500000 -0.235294 0.000000
-0.500000 -0.294118 0.000000
-0.500000 -0.352941 0.000000
-0.500000 -0.411765 0.000000
-0.500000 -0.470588 0.000000
-0.500000 -0.529412 0.000000
-0.500000 -0.588235 0.000000
-0.500000 -0.647059 0.000000
-0.500000 -0.705882 0.000000
-0.500000 -0.764706 0.000000
-0.500000 -0.823529 0.000000
-0.500000 -0.882353 0.000000
-0.500000 -0.941176 0.000000
-0.441176 -1.000000 0.000000
-0.382353 -1.000000 0.000000
-0.323529 -1.000000 0.000000
-0.264706 -1.000000 0.000000
-0.205882 -1.000000 0.000000
-0.147059 -1.000000 0.000000
-0.088235 -1.000000 0.000000
-0.029412 -1.000000 0.000000
0.029412 -1.000000 0.000000
0.088235 -1.000000 0.000000
0.147059 -1.000000 0.000000
0.205882 -1.000000 0.000000
0.264706 -1.000000 0.000000
0.323529 -1.000000 0.000000
0.382353 -1.000000 0.000000
0.441176 -1.000000 0.000000
0.500000 -1.000000 0.000000
0.558824 -1.000000 0.000000
0.617647 -1.000000 0.000000
0.676471 -1.000000 0.000000
0.735294 -1.000000 0.000000
0.794118 -1.000000 0.000000
0.852941 -1.000000 0.000000
0.911765 -1.000000 0.000000
0.970588 -1.000000 0.000000
1.029412 -1.000000 0.000000
1.088235 -1.000000 0.000000
1.147059 -1.000000 0.000000
1.205882 -1.000000 0.000000
[...]
CELL_DATA 11164
SCALARS Density double 1
LOOKUP_TABLE default
       0.3394192224938283
       0.4327493045466105
       0.4383256810543207
       0.4626644366972505
       0.3766089838384183
       0.3803603854009286
       0.3549335207040131
       0.3321927634953750
       0.3565272789511233
       0.3409774237020874
       0.3460909960998411
       0.4485354258705950
       0.4440806350995258
       0.4302303715158478
       0.3853078704935983
       0.3296713282538079
       0.4548091741588545
       0.3761968933854679
       0.4421396754302750
       0.4363201741979348
       0.3872227783683740
       0.3416864945240873
       0.3802242541000034
       0.4429181309434517
       0.3528389869401574
       0.4126468965597075
       0.4516827716943821
       0.3959522440835802
       0.4447764179290370
       0.4408845443759310
       0.3439333448201108
       0.4543566977850132
       0.3703452848845415
       0.4620094224475721
       0.3512570165924209
       0.4508419555397474
       0.3992652631161672
       0.3749762918783296
       0.4515123002713085
       0.4130631327828045
       0.4199129436876723
       0.4438270671418643
       0.3443731549557692
       0.3843049985518220
       0.4058340394262595
       0.4070851308414329
       0.4135561587358838
       0.3945684870385470
       0.4180080835776608
       0.4026920600650942
       0.4464559704003915
       0.3500691966045074
       0.4741579963252023
       0.3414946743945180
       0.4301398170015746
       0.4231552789722567
       0.3300090904817516
       0.3924595266860156
       0.4677065129728415
       0.3769122949816485
       0.4554296467508545
       0.3532660783872417
       0.3903428715685942
       0.4038000006855140
       0.3349672768537138
       0.3535251440582515
       0.4618035188266316
       0.3924549701355144
       0.4563314160104502
       0.4639451422683031
       0.5125736951006604
       0.4203714884683845
       0.3922797993594567
       0.3323651430524667
       0.4036418657370255
       0.3586073577711865
       0.3247787402836421
       0.3633909126322260
       0.3513000777532833
       0.4414600497075814
       0.4415891872019017
       0.4297895258613785
       0.4631017096347724
       0.4047841095696670
       0.4555305859706515
       0.4875623246884361
       0.3865624995574945
       0.3768327679382766
       0.4109849839104926
       0.4677421830501241
       0.3768554548158913
       0.3834838369602566
       0.3312877604594677
       0.4483363483945723
       0.3841523314856964
       0.4277566491599247
       0.3536583469324543
       0.4006177051448280
       0.4318030544695929
       0.3244413509199366
       0.3797598982149726
       0.4402162418342944
       0.4034879824130635
       0.3511694307633576
       0.3870936525335656
       0.4092412515927511
       0.4498576252770948
       0.4036809753069946
       0.4003360113364863
       0.3272916527738801
       0.4899995256699440
       0.4527110342374949
       0.4020431165088025
       0.4084443316412463
       0.3420765591937441
       0.3525911270248709
       0.3402028902724538
       0.3374573635430918
       0.4136968526520806
       0.4692247513370220
       0.3477435920729129
       0.3548329835513423
       0.4079959307795729
       0.3433181128652003
       0.4197251777367016
       0.3887889607032849
       0.3547704237765553
       0.3826643410686875
       0.3706607433975252
       0.4395902106783791
       0.3916712424704658
       0.3995497976825587
       0.4184312411452324
       0.4052085391742098
       0.4810230586445245
       0.3840522775113178
       0.4036961648050331
       0.4446084143397624
       0.4686533798890642
       0.3781941474948325
       0.3988824739076054
       0.4469749313639605
       0.4045319985231052
       0.4222460820066508
       0.4081903637292554
       0.3323157838058313
       0.4695603703954364
       0.3885865002785883
       0.4535610746790552
       0.4627641160367741
       0.3301249129091864
       0.3981574201786632
       0.3262601159380217
       0.4345248932900139
       0.3747228222989292
       0.3733557619628842
       0.4545380604831548
       0.3997969441523251
       0.4134377464196587
       0.4320959897798092
       0.3224072458500983
       0.3869814422029914
       0.4394408257126921
       0.4302498750698680
       0.3479715656285045
       0.4385542432601705
       0.4002449762534719
       0.4632063173344171
       0.4415601816257310
       0.4492462220875931
       0.3425407297859161
       0.3352064792877271
       0.4693572161882085
       0.3910247795628131
       0.4085506724544693
       0.4250496948612429
       0.4797735724289722
       0.4091732723625017
       0.3937523813041682
       0.4007075419241549
       0.4400583719811298
       0.3476337002910623
       0.4430773423214217
       0.4404795024239807
       0.4403803676149602
       0.3648930629211130
       0.4483356107116188
       0.4344361338077439
       0.3906897594635965
       0.3409756676619035
       0.3922639660824369
       0.3854295406949623
       0.4443505497197282
       0.4521832374013183
       0.4450041368929427
       0.3992396089561123
       0.3717001952948839
       0.4022240103007814
       0.3443129266068130
       0.3863712482547171
       0.4135852926916873
       0.3334533754262721
       0.3334337588734094
       0.4427396390670735
       0.3354628596002815
       0.3725491436125582
       0.3524648546121045
       0.4673998285501243
       0.4185617346153599
       0.3832010521616944
       0.3446467792619722
       0.3822271352839213
       0.4249554888593590
       0.4498300447958545
       0.4308563741141282
       0.4429025534904764
       0.3843767934104558
       0.3460146803247388
       0.4020679429998900
       0.3515894497099767
       0.4058965483051429
       0.3439527237308540
       0.4165005657590555
       0.3431204797011866
       0.4147359448642890
       0.4237792311452434
       0.4151629903931952
       0.3416930645495287
       0.3341603476788144
       0.4527065576443877
       0.4099945678806832
       0.4223139283212478
       0.3920926444347572
       0.4324057101690376
       0.4451399012645104
       0.4546688788580077
       0.4508330246299855
       0.4309447542756092
       0.4428245906068105
       0.4686144468839126
       0.3987159468973747
       0.4097040450522605
       0.3805461600784328
       0.4472145061912138
       0.4423579325828874
       0.3520494316638036
       0.3778505431601727
       0.3717144429803655
       0.3568167344793312
       0.4306166200096316
       0.3467830962013921
       0.4371727083183812
       0.4227956105280954
       0.3424086789609084
       0.4641791947797189
       0.4289157605931907
       0.4512404274476892
       0.4435158313140575
       0.3871907870028168
       0.4027016724820563
       0.3921092104268462
       0.3547810663934598
       0.4333332065389502
       0.3782338573624389
       0.4338738364814761
       0.4363471839309632
       0.4589512611040050
       0.4550962367810699
       0.3954800414450337
       0.4162337616239369
       0.3572693112198696
       0.4352633256478103
       0.4573391779698537
       0.4407454776042035
       0.4529905294185890
       0.4173565849374792
       0.4378233997070116
       0.4714581999004244
       0.4410836218209744
       0.3489254277511754
       0.4028013741134598
       0.3283347676417245
       0.4328219390008006
       0.4078934692307777
       0.4086686795563138
       0.4352584943893796
       0.4050054284092723
       0.3371461299409769
       0.4234811679391241
       0.4390779814138905
       0.3292529803072641
       0.4281445842426821
       0.4623697119960334
       0.4198117660363269
       0.4329591257120599
       0.4384850449520363
       0.4746180300290068
       0.4491573611324945
       0.4655926415124781
       0.3562926487936467
       0.4393462234969194
       0.3389896570309074
       0.4518573819119200
       0.3992709931295491
       0.4370140574465829
       0.4027279933429363
       0.4173724547694823
       0.3504070845102463
       0.4538535337883198
       0.3566349527623797
       0.4593117237463235
       0.4596376799974744
       0.3939297836795855
       0.3536556079034707
       0.3483007163685709
       0.3858503008211702
       0.4087382378732755
       0.3426110793006782
       0.4382495076412664
       0.4026016552964972
       0.4475648879772781
       0.4129713735333876
       0.3475684709119907
       0.4148466407641800
       0.4409568891180969
       0.4680426580187759
       0.4330335490059513
       0.3876689180694008
       0.3372430799499292
       0.4315897565792334
       0.3379356764830491
       0.3434343220174225
       0.3273287581074248
       0.4243380170099701
       0.4227029924549680
       0.4448792377505846
       0.4321802395625488
       0.3865076751679273
       0.4581573439090759
       0.4415309297765022
       0.4387101558068461
       0.4046900600645306
       0.4054263133716433
       0.4432629350911553
       0.4289590774187705
       0.4096773787038575
       0.4262535903551173
       0.4238752200921789
       0.3367228222767288
       0.4372111524881478
       0.4544473480224664
       0.4357646339269196
       0.3936201624731038
       0.4455977797800850
       0.3280064853295556
       0.4354353011863681
       0.4257747181936342
       0.4439747678431898
       0.4657720046635400
       0.3681217776407972
       0.4508179045596973
       0.4703846956902696
       0.4244028159243424
       0.3786990800480882
       0.4232375210095314
       0.4135503458733964
       0.4272735401312189
       0.4368146918065287
       0.4449015552183682
       0.4231322336066865
       0.4136767205568065
       0.4141392423688807
       0.4397069182824518
       0.4212502680730998
       0.4508686444984283
       0.4428161025021643
       0.4319077318732539
       0.5074137954592646
       0.4444941484476194
       0.3563531717834474
       0.3525300059979743
       0.4704834343165124
       0.3230321266796178
       0.4725042919106468
       0.4632260736541080
       0.4199146742395305
       0.3533741049281044
       0.4437018901390819
       0.3252440854145731
       0.4463371943248218
       0.4274256350396998
       0.4691458193781475
       0.3688484038298483
       0.4111589799507721
       0.4488083790565789
       0.4654977990930706
       0.3461473897492438
       0.4404670523588223
       0.3545518073318652
       0.4414849830175472
       0.4110858707600848
       0.4117607677264495
       0.4064388493186631
       0.3493240012949452
       0.3906398627287390
       0.4353224289694553
       0.4224188973483922
       0.4476475566185379
       0.4331703445814405
       0.4465928359836756
       0.3295470492292787
       0.5050894827341031
       0.4469869807838563
       0.4541858647788410
       0.4303761341706214
       0.4101948590062282
       0.4187584193911482
       0.4170617771970902
       0.4378011230575422
       0.4546656824073977
       0.3929634049958153
       0.4015413263680025
       0.4124908869595474
       0.3268700751705673
       0.4501837748787069
       0.4623801526896771
       0.4538454936856182
       0.3932584663900456
       0.4674579688110381
       0.4634247590909554
       0.4155012337620997
       0.3268289415579714
       0.4707353248232853
       0.4352324646567540
       0.3328072351716032
       0.3411014938629420
       0.3226437294727034
       0.4513230479718879
       0.4045075566198966
       0.4466330757459873
       0.3679705865477214
       0.4227849915904869
       0.3669990318503327
       0.3751592998942329
       0.3612122360150926
       0.3602614347458811
       0.4406329265363665
       0.4578264827623499
       0.3701929404850562
       0.4123666683323208
       0.4442101388280542
       0.3974573206299156
       0.3711954381342917
       0.4108256863837135
       0.4683532315465396
       0.4142375846827149
       0.3469432194275143
       0.4418886809473567
       0.4185461899181117
       0.3279403257444340
       0.3730143375087420
       0.3729867074196523
       0.4353377542053776
       0.4528038874898648
       0.4654758563171221
       0.3826912411011101
       0.3754168889145665
       0.4458747065679356
       0.3556128883592399
       0.3223820659075595
       0.4116331007848175
       0.3937775454248390
       0.3474766388851144
       0.4356810092435989
       0.4154236274716628
       0.3758861834357763
       0.3375331511812352
       0.4322495811623296
       0.3372367986898743
       0.3958467033642188
       0.3337603762887147
       0.4505579103981324
       0.4413585056695675
       0.4561900050999708
       0.4308411302513401
       0.4446899244877461
       0.3331034898751302
       0.4566019015000407
       0.3928499087504324
       0.3943425828579473
       0.4049932016925419
       0.4432772397081135
       0.4361720288557697
       0.4345655948030103
       0.3663731390442683
       0.4317978940557382
       0.3868163025967031
       0.4443238174488990
       0.3981180696734665
       0.4392749492124896
       0.4382495130103533
       0.4531143618456348
       0.3593222684173278
       0.3797932118107059
       0.4241916561107374
       0.4162261454099135
       0.3219346672996953
       0.3819032313571124
       0.4259792835409648
       0.4875489723164623
       0.4527268407562203
       0.3950462586677760
       0.4359663460365398
       0.3944098761702660
       0.4047504521641297
       0.4381396850932572
       0.3754434592642583
       0.4250466562015107
       0.4040584358144592
       0.3424264982595767
       0.3437586910561329
       0.3705692724114937
       0.4468252029228874
       0.5115571559864935
       0.4261232045542545
       0.4044982880025563
       0.4303599392653389
       0.4786530626488307
       0.4212595698582158
       0.4379635551439711
       0.4562081978346341
       0.3443620435642177
       0.4456913389585807
       0.4333621253968677
       0.3928181477404672
       0.4514465397325359
       0.4359672764932556
       0.4519260544931091
       0.4287198559324505
       0.4414770931960630
       0.4385053355260943
       0.4261689272400533
       0.4434680000181049
       0.4388566182847770
       0.4517574714332691
       0.3817709929789491
       0.3817246836123897
       0.4168454627302673
       0.5057408895793646
       0.4471040645191890
       0.4547704075284432
       0.4032934364561434
       0.4079508963256726
       0.4207426094270774
       0.4080319274464363
       0.4411475288440778
       0.3402002464491501
       0.4141092752413729
       0.4594342403288257
       0.3723067193471878
       0.4370810869458449
       0.4566097561307273
       0.4440370062012908
       0.3876388162796298
       0.3517849602220760
       0.4412601235125606
       0.4661599046862414
       0.3791657527537762
       0.4488227945406658
       0.4256675370162028
       0.4384872975445800
       0.3239054540590977
       0.3896279221627279
       0.4200278943430027
       0.3547257293385365
       0.4495842792025229
       0.3697698043520207
       0.4593126429801028
       0.4315900145713834
       0.4061202233013802
       0.4649073810435504
       0.4639194660031754
       0.4356043552597250
       0.3340629146694425
       0.3355295551442815
       0.3363099596455071
       0.3432476552439811
       0.4170290496137420
       0.3333693339952606
       0.4387447782195238
       0.4288707100891291
       0.4361320729091507
       0.4474241996696808
       0.4455115310418214
       0.3593099753281350
       0.3432511070349511
       0.3514539975417551
       0.3905338236479285
       0.3976602895457867
       0.3540086626818817
       0.3545160595259017
       0.4341626050185987
       0.4588682423576950
       0.3410082969213763
       0.4049365411493591
       0.3944481554899111
       0.4652494410897723
       0.3593793692392340
       0.4402695131563718
       0.4923944115137526
       0.4386229374619645
       0.4394903438462313
       0.4288650828963871
       0.4159003499680507
       0.4531354870209979
       0.3683401055725432
       0.3574931583823708
       0.3538141888360721
       0.4243917615597229
       0.4256676630182618
       0.4072223186799320
       0.3373161826174356
       0.4355103323317546
       0.3867289359555272
       0.4820962625249292
       0.3951257225455140
       0.4201274066202656
       0.3707532763183010
       0.4158147405185748
       0.3915185330853728
       0.4168389172072528
       0.3540011330780391
       0.3408862080528758
       0.4326266293926374
       0.4114877017628150
       0.4401348996053873
       0.3670958607389035
       0.3903275199188505
       0.4589940798728356
       0.4484288062609396
       0.4428540602909862
       0.3480045412935320
       0.3264876414384373
       0.4707797492956675
       0.3500256632462252
       0.3500761986527482
       0.5107962677079159
       0.4600058948731329
       0.4053280985067416
       0.4333797686907482
       0.3441555720625638
       0.4217354451655215
       0.4452607210861621
       0.3882445606577740
       0.3838638860195496
       0.4272725922136772
       0.4376704036478754
       0.3655634052345905
       0.3423227041900598
       0.3664883128566221
       0.4242522503654924
       0.3515563686555532
       0.3662984037503462
       0.4346157357322606
       0.4033401550252722
       0.3424134213678287
       0.3310039519182056
       0.4793500914792571
       0.3371839078792661
       0.4559489934252329
       0.4258896704519866
       0.4500177265726205
       0.4565415996856844
       0.4704626935176049
       0.4629574482196245
       0.3934012850034150
       0.3361125660045977
       0.4471777429276645
       0.4655396800115175
       0.4336785311230724
       0.3391202970480437
       0.3966314599200065
       0.4413979566721399
       0.4617584892690442
       0.3633981575663350
       0.4344547855655109
       0.4454907016524376
       0.3988186905317164
       0.3624809330427571
       0.4562456108410809
       0.3862595479846571
       0.4056982254590197
       0.4662138051753036
       0.4127907343257176
       0.4005331750470014
       0.3850610535654279
       0.4336754027594761
       0.4240373122474388
       0.3993526491961191
       0.4964649643002064
       0.3276561393149083
       0.3828272791306105
       0.3878439945133978
       0.3324927519118064
       0.4572205208731708
       0.4224460061137536
       0.4175716987881805
       0.4653129889235054
       0.4122751011624254
       0.4394073698819669
       0.4395968208844797
       0.4447617709082016
       0.4453771928814061
       0.4508348365231751
       0.4262295521467658
       0.4182420570078088
       0.4357101159167027
       0.4044392156896060
       0.4596689697077168
       0.4634575743136631
       0.3471680441255133
       0.4586205149019286
       0.3901334600907034
       0.4309035204221362
       0.4406142755069656
       0.3384138195894467
       0.4280932750927762
       0.4717964838927445
       0.3813793320393387
       0.3499725012520420
       0.4162758743309100
       0.4733005170519166
       0.3311228810226217
       0.4236847212602454
       0.3789572386593854
       0.3494219118373041
       0.3412096920538323
       0.3861752026660787
       0.4602875011945092
       0.3854521832983575
       0.4554850546456689
       0.3982113119165246
       0.3401180240694370
       0.4445389536417519
       0.4292276706815026
       0.4114936723134077
       0.4567322135524889
       0.4647611987283660
       0.4539503644639029
       0.4437477032101005
       0.4637716852065279
       0.3818388170994842
       0.4475291761460278
       0.4531489609329961
       0.4629236735594639
       0.4387024480407262
       0.4417564322257425
       0.4408172172662543
       0.3521810525451719
       0.3714787426878280
       0.4632971517757877
       0.4372952198452298
       0.3307652935293013
       0.4315729618939338
       0.3855093558826161
       0.4511510219920963