# vtk DataFile Version 3.0
GASDIN data file
ASCII
DATASET UNSTRUCTURED_GRID
POINTS 33802 double
0.000000 0.000000 0.000000
0.000600 -0.003200 0.000000
0.000600 0.003200 0.000000
0.002400 -0.006600 0.000000
0.002400 0.006400 0.000000
0.005400 -0.009600 0.000000
0.005400 0.009500 0.000000
0.009600 -0.012700 0.000000
0.009600 0.012700 0.000000
0.015000 -0.015800 0.000000
0.015000 0.015800 0.000000
0.021500 -0.018800 0.000000
0.021500 0.018800 0.000000
0.029200 -0.021800 0.000000
0.029200 0.021600 0.000000
0.038100 -0.024700 0.000000
0.038100 0.024500 0.000000
0.048000 -0.027600 0.000000
0.048000 0.027300 0.000000
0.059000 -0.030400 0.000000
0.059000 0.030000 0.000000
0.071100 -0.033200 0.000000
0.071100 0.032800 0.000000
0.084300 -0.035800 0.000000
0.084300 0.035500 0.000000
0.098400 -0.038400 0.000000
0.098400 0.038200 0.000000
0.113500 -0.040900 0.000000
0.113500 0.040700 0.000000
0.129500 -0.043300 0.000000
0.129500 0.043200 0.000000
0.146500 -0.045600 0.000000
0.146500 0.045600 0.000000
0.164200 -0.047800 0.000000
0.164200 0.047800 0.000000
0.182800 -0.049800 0.000000
0.182800 0.049900 0.000000
0.202200 -0.051700 0.000000
0.202200 0.051900 0.000000
0.222200 -0.053400 0.000000
0.222200 0.053800 0.000000
0.243000 -0.055000 0.000000
0.243000 0.055600 0.000000
0.264300 -0.056400 0.000000
0.264300 0.057100 0.000000
0.286200 -0.057500 0.000000
0.286200 0.058500 0.000000
0.308700 -0.058400 0.000000
0.308700 0.059700 0.000000
0.331600 -0.059000 0.000000
0.331600 0.060700 0.000000
0.354900 -0.059200 0.000000
0.354900 0.061600 0.000000
0.378500 -0.058900 0.000000
0.378500 0.062200 0.000000
0.402500 -0.058200 0.000000
0.402500 0.062600 0.000000
0.426600 -0.056900 0.000000
0.426600 0.062900 0.000000
0.451000 -0.055200 0.000000
0.451000 0.062900 0.000000
0.475500 -0.053000 0.000000
0.475500 0.062600 0.000000
0.500000 -0.050400 0.000000
0.500000 0.062100 0.000000
0.524500 -0.047600 0.000000
0.524500 0.061400 0.000000
0.549000 -0.044500 0.000000
0.549000 0.060300 0.000000
0.573400 -0.041300 0.000000
0.573400 0.059000 0.000000
0.597500 -0.037900 0.000000
0.597500 0.057300 0.000000
0.621500 -0.034600 0.000000
0.621500 0.055500 0.000000
0.645100 -0.031100 0.000000
0.645100 0.053400 0.000000
0.668500 -0.027700 0.000000
0.668500 0.051100 0.000000
0.691300 -0.024400 0.000000
0.691300 0.048600 0.000000
0.713800 -0.021200 0.000000
0.713800 0.046100 0.000000
0.735700 -0.018100 0.000000
0.735700 0.043400 0.000000
0.757100 -0.015200 0.000000
0.757100 0.040800 0.000000
0.777800 -0.012600 0.000000
0.777800 0.038000 0.000000
0.797900 -0.010100 0.000000
0.797900 0.035100 0.000000
0.817200 -0.007900 0.000000
0.817200 0.032300 0.000000
0.835800 -0.005900 0.000000
0.835800 0.029500 0.000000
0.853600 -0.004200 0.000000
0.853600 0.026700 0.000000
0.870500 -0.002700 0.000000
0.870500 0.024000 0.000000
0.886500 -0.001500 0.000000
0.886500 0.021300 0.000000
0.901600 -0.000500 0.000000
0.901600 0.018700 0.000000
0.915700 0.000300 0.000000
0.915700 0.016300 0.000000
0.928900 0.000800 0.000000
0.928900 0.013900 0.000000
0.941000 0.001100 0.000000
0.941000 0.011700 0.000000
0.952000 0.001300 0.000000
0.952000 0.009600 0.000000
0.961900 0.001300 0.000000
0.961900 0.007800 0.000000
0.970800 0.001100 0.000000
0.970800 0.006100 0.000000
0.978500 0.000900 0.000000
0.978500 0.004600 0.000000
0.985000 0.000700 0.000000
0.985000 0.003300 0.000000
0.990400 0.000500 0.000000
0.990400 0.002200 0.000000
0.994600 0.000300 0.000000
0.994600 0.001300 0.000000
0.997600 0.000100 0.000000
0.997600 0.000700 0.000000
0.999400 0.000000 0.000000
0.999400 0.000300 0.000000
1.000000 0.000000 0.000000
-1.500000 -1.500000 0.000000
2.000000 -1.500000 0.000000
2.000000 1.500000 0.000000
-1.500000 1.500000 0.000000
2.000000 -1.500000 0.005000
2.000000 1.500000 0.005000
-1.500000 1.500000 0.005000
-1.500000 -1.500000 0.005000
1.000000 0.000000 0.005000
0.999400 0.000300 0.005000
0.997600 0.000700 0.005000
0.994600 0.001300 0.005000
0.990400 0.002200 0.005000
0.985000 0.003300 0.005000
0.978500 0.004600 0.005000
0.970800 0.006100 0.005000
0.961900 0.007800 0.005000
0.952000 0.009600 0.005000
0.941000 0.011700 0.005000
0.928900 0.013900 0.005000
0.915700 0.016300 0.005000
0.901600 0.018700 0.005000
0.886500 0.021300 0.005000
0.870500 0.024000 0.005000
0.853600 0.026700 0.005000
0.835800 0.029500 0.005000
0.817200 0.032300 0.005000
0.797900 0.035100 0.005000
0.777800 0.038000 0.005000
0.757100 0.040800 0.005000
0.735700 0.043400 0.005000
0.713800 0.046100 0.005000
0.691300 0.048600 0.005000
0.668500 0.051100 0.005000
0.645100 0.053400 0.005000
0.621500 0.055500 0.005000
0.597500 0.057300 0.005000
0.573400 0.059000 0.005000
0.549000 0.060300 0.005000
0.524500 0.061400 0.005000
0.500000 0.062100 0.005000
0.475500 0.062600 0.005000
0.451000 0.062900 0.005000
0.426600 0.062900 0.005000
0.402500 0.062600 0.005000
0.378500 0.062200 0.005000
0.354900 0.061600 0.005000
0.331600 0.060700 0.005000
0.308700 0.059700 0.005000
0.286200 0.058500 0.005000
0.264300 0.057100 0.005000
0.243000 0.055600 0.005000
0.222200 0.053800 0.005000
0.202200 0.051900 0.005000
0.182800 0.049900 0.005000
0.164200 0.047800 0.005000
0.146500 0.045600 0.005000
0.129500 0.043200 0.005000
0.113500 0.040700 0.005000
0.098400 0.038200 0.005000
0.084300 0.035500 0.005000
0.071100 0.032800 0.005000
0.059000 0.030000 0.005000
0.048000 0.027300 0.005000
0.038100 0.024500 0.005000
0.029200 0.021600 0.005000
0.021500 0.018800 0.005000
0.015000 0.015800 0.005000
0.009600 0.012700 0.005000
0.005400 0.009500 0.005000
0.002400 0.006400 0.005000
0.000600 0.003200 0.005000
0.000000 0.000000 0.005000
0.000600 -0.003200 0.005000
0.002400 -0.006600 0.005000
0.005400 -0.009600 0.005000
0.009600 -0.012700 0.005000
0.015000 -0.015800 0.005000
0.021500 -0.018800 0.005000
0.029200 -0.021800 0.005000
0.038100 -0.024700 0.005000
0.048000 -0.027600 0.005000
0.059000 -0.030400 0.005000
0.071100 -0.033200 0.005000
0.084300 -0.035800 0.005000
0.098400 -0.038400 0.005000
0.113500 -0.040900 0.005000
0.129500 -0.043300 0.005000
0.146500 -0.045600 0.005000
0.164200 -0.047800 0.005000
0.182800 -0.049800 0.005000
0.202200 -0.051700 0.005000
0.222200 -0.053400 0.005000
0.243000 -0.055000 0.005000
0.264300 -0.056400 0.005000
0.286200 -0.057500 0.005000
0.308700 -0.058400 0.005000
0.331600 -0.059000 0.005000
0.354900 -0.059200 0.005000
0.378500 -0.058900 0.005000
0.402500 -0.058200 0.005000
0.426600 -0.056900 0.005000
0.451000 -0.055200 0.005000
0.475500 -0.053000 0.005000
0.500000 -0.050400 0.005000
0.524500 -0.047600 0.005000
0.549000 -0.044500 0.005000
0.573400 -0.041300 0.005000
0.597500 -0.037900 0.005000
0.621500 -0.034600 0.005000
0.645100 -0.031100 0.005000
0.668500 -0.027700 0.005000
0.691300 -0.024400 0.005000
0.713800 -0.021200 0.005000
0.735700 -0.018100 0.005000
0.757100 -0.015200 0.005000
0.777800 -0.012600 0.005000
0.797900 -0.010100 0.005000
0.817200 -0.007900 0.005000
0.835800 -0.005900 0.005000
0.853600 -0.004200 0.005000
0.870500 -0.002700 0.005000
0.886500 -0.001500 0.005000
0.901600 -0.000500 0.005000
0.915700 0.000300 0.005000
0.928900 0.000800 0.005000
0.941000 0.001100 0.005000
0.952000 0.001300 0.005000
0.961900 0.001300 0.005000
0.970800 0.001100 0.005000
0.978500 0.000900 0.005000
0.985000 0.000700 0.005000
0.990400 0.000500 0.005000
0.994600 0.000300 0.005000
0.997600 0.000100 0.005000
0.999400 0.000000 0.005000
1.940619 1.500000 0.000000
1.880735 1.500000 0.000000
1.820342 1.500000 0.000000
1.759437 1.500000 0.000000
1.698016 1.500000 0.000000
1.636073 1.500000 0.000000
1.573606 1.500000 0.000000
1.510608 1.500000 0.000000
1.447075 1.500000 0.000000
1.383004 1.500000 0.000000
1.318389 1.500000 0.000000
1.253227 1.500000 0.000000
1.187511 1.500000 0.000000
1.121238 1.500000 0.000000
1.054403 1.500000 0.000000
0.987000 1.500000 0.000000
0.919026 1.500000 0.000000
0.850476 1.500000 0.000000
0.781343 1.500000 0.000000
0.711625 1.500000 0.000000
0.641315 1.500000 0.000000
0.570408 1.500000 0.000000
0.498900 1.500000 0.000000
0.426786 1.500000 0.000000
0.354060 1.500000 0.000000
0.280716 1.500000 0.000000
0.206751 1.500000 0.000000
0.132158 1.500000 0.000000
0.056932 1.500000 0.000000
-0.018931 1.500000 0.000000
-0.095439 1.500000 0.000000
-0.172595 1.500000 0.000000
-0.250406 1.500000 0.000000
-0.328877 1.500000 0.000000
-0.408013 1.500000 0.000000
-0.487821 1.500000 0.000000
-0.568306 1.500000 0.000000
-0.649474 1.500000 0.000000
-0.731330 1.500000 0.000000
-0.813880 1.500000 0.000000
-0.897131 1.500000 0.000000
-0.981088 1.500000 0.000000
-1.065757 1.500000 0.000000
-1.151145 1.500000 0.000000
-1.237257 1.500000 0.000000
-1.324099 1.500000 0.000000
-1.411678 1.500000 0.000000
-1.500000 1.411765 0.000000
-1.500000 1.323529 0.000000
-1.500000 1.235294 0.000000
-1.500000 1.147059 0.000000
-1.500000 1.058824 0.000000
-1.500000 0.970588 0.000000
-1.500000 0.882353 0.000000
-1.500000 0.794118 0.000000
-1.500000 0.705882 0.000000
-1.500000 0.617647 0.000000
-1.500000 0.529412 0.000000
-1.500000 0.441176 0.000000
-1.500000 0.352941 0.000000
-1.500000 0.264706 0.000000
-1.500000 0.176471 0.000000
-1.500000 0.088235 0.000000
-1.500000 0.000000 0.000000
-1.500000 -0.088235 0.000000
-1.500000 -0.176471 0.000000
-1.500000 -0.264706 0.000000
-1.500000 -0.352941 0.000000
-1.500000 -0.441176 0.000000
-1.500000 -0.529412 0.000000
-1.500000 -0.617647 0.000000
-1.500000 -0.705882 0.000000
-1.500000 -0.794118 0.000000
-1.500000 -0.882353 0.000000
-1.500000 -0.970588 0.000000
-1.500000 -1.058824 0.000000
-1.500000 -1.147059 0.000000
-1.500000 -1.235294 0.000000
-1.500000 -1.323529 0.000000
-1.500000 -1.411765 0.000000
-1.411678 -1.500000 0.000000
-1.324099 -1.500000 0.000000
-1.237257 -1.500000 0.000000
-1.151145 -1.500000 0.000000
-1.065757 -1.500000 0.000000
-0.981088 -1.500000 0.000000
-0.897131 -1.500000 0.000000
-0.813880 -1.500000 0.000000
-0.731330 -1.500000 0.000000
-0.649474 -1.500000 0.000000
-0.568306 -1.500000 0.000000
-0.487821 -1.500000 0.000000
-0.408013 -1.500000 0.000000
-0.328877 -1.500000 0.000000
-0.250406 -1.500000 0.000000
[...]
CELL_DATA 18477
SCALARS Density double 1
LOOKUP_TABLE default
       0.4384035514387725
       0.3973605272140662
       0.4311587699800272
       0.4039882580188195
       0.3121580215018050
       0.4041644312381073
       0.4270516377877726
       0.4083991652646700
       0.4255502613676954
       0.4485100165770404
       0.4460592293408642
       0.4527186309611941
       0.3984764601110217
       0.3971089022931402
       0.3338063983659995
       0.4133378666246220
       0.4457989289378195
       0.3221108753331233
       0.4176377364118448
       0.4583352646347710
       0.4790869016550830
       0.4203204545964683
       0.4042675777694091
       0.3610491057663004
       0.4891757385125454
       0.4443623633357316
       0.4667580231416973
       0.4448070919768760
       0.4319484102775094
       0.3647710068633455
       0.3558976507715084
       0.4701710812048225
       0.4235470547926078
       0.3664611678628445
       0.4160835403175617
       0.4029797552554694
       0.4634872613959307
       0.4445363060713097
       0.3664299290889826
       0.4570017550002359
       0.3240725929478991
       0.3921348343966297
       0.3913630512035576
       0.4801317210987454
       0.4510704918480029
       0.4460536922698287
       0.4236119019841376
       0.3805585777523173
       0.4564712621562536
       0.4464506059715281
       0.4550971630938306
       0.4272411722198070
       0.4456636839365272
       0.4105129509588829
       0.3028876663786161
       0.3999951217924460
       0.4593502153390728
       0.4475049302560591
       0.4426202138607814
       0.3974152245666269
       0.4185042590767362
       0.3998341137503197
       0.3158884323988517
       0.4649034056146708
       0.4477197821707022
       0.4310605366944465
       0.4553158288162597
       0.4299745146143544
       0.4458840964989041
       0.4084776279758612
       0.4440902165906074
       0.4324001940155456
       0.3322987467529536
       0.4554534848231126
       0.3322485548963452
       0.4565184513445915
       0.3954868959895301
       0.4449864141917812
       0.4258152815215167
       0.4012275207997158
       0.4160550715248642
       0.4699574102700354
       0.4471055334124195
       0.3128370701307955
       0.3979650572297886
       0.4551810358698974
       0.4249141857649900
       0.4608176155682351
       0.4248137027132420
       0.4327864336992719
       0.4045929028641234
       0.4319563371885704
       0.4743037084347112
       0.4135944997218831
       0.4441013832650013
       0.4663717468724458
       0.4360019649959007
       0.4351677958339794
       0.4300883488642276
       0.3042732677578138
       0.4268212963559451
       0.4302465456632010
       0.4354713698855529
       0.4175917943189522
       0.4475923743568604
       0.3917928532928025
       0.4731971906653299
       0.4051448205015357
       0.4254490686135899
       0.4381847734477408
       0.4330580110278352
       0.4368238658083918
       0.4552167449934305
       0.4602766349516754
       0.4540426351866246
       0.4071053462268979
       0.4007627082877155
       0.4443926912097732
       0.4361307874073880
       0.4564112154075178
       0.4525803116747199
       0.4646886206331280
       0.4484440216515941
       0.4467871008596238
       0.4875558761476658
       0.4020605551432495
       0.4068144460596881
       0.3063504034365778
       0.3994311314035913
       0.3073163574619495
       0.4375766528392338
       0.4086481123725098
       0.3203863861478294
       0.4512813516672092
       0.4601333160566312
       0.4648844826016741
       0.4446825817725659
       0.3090268660873147
       0.3433677721823304
       0.4410341019406520
       0.4273513918032172
       0.4580010177301516
       0.4044721233394963
       0.4708581330735535
       0.4445280822096554
       0.4129667221745817
       0.4458771664823064
       0.4514823620910753
       0.3336565039154198
       0.4175029552473755
       0.4328907080888629
       0.3376389161795816
       0.4159672790037618
       0.3400399269298265
       0.4380293838461496
       0.4367967574602534
       0.3867771251883205
       0.3434525949468951
       0.4417486398237503
       0.4512430968088880
       0.4535586570977432
       0.4394392747168634
       0.4670329496873567
       0.4604964903466882
       0.4534382292576322
       0.4444280318645559
       0.3970104890927673
       0.3006656856245729
       0.4445580003622879
       0.4058665298229858
       0.4553799299267822
       0.4891498917135246
       0.4442100118406846
       0.5002977750109617
       0.4547669486791208
       0.4506144977638511
       0.4249244043492026
       0.4435548744059196
       0.4045992282380141
       0.4016129230648531
       0.3735893839661073
       0.4354502418889746
       0.3070376933262342
       0.4301909758270654
       0.4451106752115911
       0.3983287144637597
       0.4689488775552260
       0.4452237205670456
       0.4501786166063149
       0.4550104959551537
       0.4417491490604117
       0.3957755031795549
       0.3443938484601953
       0.4148686364638165
       0.4739379204299639
       0.4383539580993191
       0.4355553791253352
       0.4340929804956182
       0.4136017741208606
       0.4166641869045363
       0.4045360660207994
       0.4479751957761022
       0.4578042897096749
       0.3202646089557024
       0.4433444537863531
       0.4463285843799398
       0.4519564344026241
       0.4587248807921782
       0.4523015593741376
       0.4359827157662527
       0.4795030272371757
       0.4413557627898496
       0.4286998750304071
       0.3127889531851540
       0.4091385731517435
       0.3153268595457982
       0.3975900423993151
       0.3033068680630120
       0.4255255149986455
       0.4374048720590818
       0.4623140476594921
       0.4636834176611248
       0.3130655541888808
       0.4417710497673010
       0.3477456827087024
       0.4333420910475707
       0.3301392141332586
       0.4550531920007175
       0.4342971210724066
       0.4540140272639899
       0.4037606555862728
       0.4559622701776786
       0.4554849714993270
       0.4425441103243561
       0.3074115301383663
       0.4650881280642789
       0.3614676741301185
       0.4238448336954343
       0.3457637920265107
       0.4476113509622291
       0.3298782647342277
       0.4526709782337643
       0.4198547464085507
       0.4361848017017840
       0.4299134318698543
       0.4481630743036421
       0.4612924472446933
       0.4604745694943781
       0.3769918096209761
       0.3221953204135184
       0.4447752685837158
       0.4444384514970450
       0.3295242153369474
       0.4028500341513189
       0.4344539000349326
       0.4416840525365880
       0.4442721646438030
       0.3983648257124977
       0.4175094437130549
       0.4434854210694159
       0.4370123866929266
       0.4469696612276345
       0.3380746244151988
       0.4480668291578511
       0.4431753780371768
       0.3405310225553870
       0.4353911434308353
       0.4206205016286780
       0.4393006758831201
       0.4467493801587101
       0.4705013175477226
       0.5139514495303946
       0.3993343552603126
       0.3097694084456017
       0.4313829896630086
       0.4091504693748659
       0.4679884414278128
       0.4441369839176817
       0.3992895829485145
       0.4378347346665884
       0.4233647738369843
       0.3085934359425174
       0.4588009551564594
       0.4410425978152640
       0.4130853630013629
       0.4486869112094373
       0.4571198897483582
       0.4378500979788494
       0.3933653079027877
       0.4271678417338778
       0.3110946080862804
       0.3927738820646914
       0.4926262828246705
       0.4534501021051450
       0.4445383673789947
       0.4300471906428646
       0.4438067955482520
       0.4437354818553363
       0.3194564654462822
       0.4033015224807413
       0.5047592505192474
       0.4089387250059079
       0.4473560415387724
       0.4492204595892664
       0.4379156909320144
       0.4419881353039297
       0.4618438735546615
       0.4420257986986619
       0.3121321090223068
       0.4655543427605373
       0.4516729356871128
       0.3724261366181897
       0.4436512333866031
       0.4449094229952676
       0.4239770329626750
       0.4445866587542843
       0.4543078325373233
       0.4922792691554743
       0.4674345660669830
       0.4492068720206021
       0.5001398302769904
       0.3361949347811548
       0.4189023855851848
       0.4674832693089040
       0.4488741560706945
       0.4070217791626916
       0.4322059035239591
       0.4634632858364250
       0.4311255374486765
       0.4218987630776706
       0.4381610289253283
       0.4361685907592518
       0.4204051001430145
       0.3947093447609052
       0.4459971328395566
       0.4557730208312621
       0.4523252187975387
       0.4272001612131698
       0.3797114300608254
       0.4710052076623374
       0.4238048911617911
       0.4698094917055935
       0.4395576536961431
       0.4440766449886231
       0.3808844056201257
       0.4460867984876792
       0.4151365524491357
       0.3806976032469424
       0.4289571439569418
       0.4446148072538553
       0.4106739274433057
       0.4512143410032639
       0.3115666240037404
       0.4406968703767154
       0.4240727925263548
       0.3882037039877145
       0.4287869833407304
       0.4464718610253033
       0.4324059340934074
       0.3211996767084087
       0.4954630782879298
       0.4553091608871888
       0.4387377502496861
       0.4462673429022563
       0.3542810032970867
       0.4739931068364650
       0.4454875333128621
       0.3097733330829637
       0.4529074391991054
       0.4491757128907776
       0.4267540728243470
       0.4249635818393924
       0.3745593651517323
       0.4407621896919944
       0.4669124277853575
       0.4397559989435368
       0.4616964863855562
       0.4342826569552998
       0.4294896185854548
       0.4076879328529201
       0.3788541686261392
       0.3256910284711255
       0.3315239129965949
       0.4239968621489972
       0.4200276648035009
       0.4185180149170062
       0.3253068720881151
       0.4487859284733496
       0.4320452793220860
       0.3061704129813698
       0.3798703961226044
       0.4181324975957331
       0.4170801899177672
       0.3432647327229472
       0.4594111292612801
       0.4488926193285968
       0.4422810107003604
       0.4010178901304317
       0.3629545307406020
       0.4194780530067468
       0.3675954560949385
       0.4008014604525429
       0.3941336560730013
       0.3965563440321720
       0.4231010207916043
       0.5000220052529761
       0.4257403536687775
       0.4255800138135048
       0.4371498273388130
       0.3401973003328769
       0.3290033776541649
       0.4449266103500100
       0.4308016230752130
       0.4167372815928534
       0.4038953751749408
       0.4292660377756699
       0.4033253468183878
       0.3200449458451139
       0.4801920108729405
       0.4377572394007224
       0.4354664353252527
       0.4459743424260830
       0.4484235000981176
       0.4446411596810773
       0.3137237282045581
       0.4641682557359378
       0.4430725893419199
       0.3519620507168477
       0.3563880226665741
       0.3344766990854438
       0.4335635131476234
       0.3118997511954786
       0.4404968223922816
       0.4654862307701248
       0.4479761434901060
       0.3242472944997108
       0.4023230669255719
       0.4337642268152413
       0.4002235914363789
       0.4440079845086177
       0.3997776076825470
       0.3666300783716761
       0.4422141554655148
       0.4162696111058992
       0.4353408667641394
       0.4138677983710248
       0.4702855951634796
       0.4539306440759140
       0.4887587537866838
       0.3958151279662211
       0.4416041981869717
       0.4232624981718258
       0.3570899485862682
       0.4546507103807460
       0.4494991693661397
       0.4482813748609745
       0.4236138536519663
       0.3064888076135211
       0.4412524581623969
       0.3294196849460176
       0.4392648635787603
       0.4470756154393604
       0.4400061597100644
       0.3447789898314773
       0.4258013774601861
       0.3582194277152564
       0.4245945877035103
       0.4438337481444529
       0.4451132494601047
       0.4057710855853700
       0.4470087858927990
       0.4502841694658357
       0.3245876095017420
       0.4156634129464220
       0.4322660561917973
       0.4275834355625431
       0.4529851000406658
       0.4452141470632349
       0.4408262420076747
       0.4217611013276227
       0.4061681261737322
       0.3582501991175728
       0.4334357367055234
       0.3998547701165752
       0.5215090615009924
       0.4342164262781928
       0.4405686577481767
       0.4274870292413922
       0.4287865907170279
       0.4387842414564359
       0.4386925028029205
       0.4369224740319242
       0.3648411259251739
       0.4119869101480323
       0.3950639159636157
       0.3000904249791339
       0.4448526775239267
       0.3348325578765175
       0.4155989243332406
       0.4150678046831584
       0.4455393468872031
       0.3649972505094830
       0.4178742108610090
       0.3637690258089169
       0.3686281274542325
       0.4393085507892731
       0.4336214681412799
       0.3970047372667255
       0.3618267045009041
       0.4308291762262162
       0.4634996222066869
       0.4877769183264778
       0.4068784175567871
       0.4219402243930697
       0.4799274974694307
       0.4386842428230384
       0.4603698729602756
       0.4249351443727559
       0.4310898616210245
       0.3921977159350560
       0.4496608363981428
       0.4564813413619999
       0.3239573203417439
       0.4286529667729245
       0.4073445969245005
       0.4520912322862194
       0.4424418557076221
       0.4443205892919190
       0.3223731180485828
       0.4383797219540069
       0.4474128088547625
       0.4711026110077705
       0.4194091836247851
       0.4534897828591182
       0.4494207558417744
       0.4306197172043613
       0.4553192268561940
       0.3084541130984916
       0.4421751878653080
       0.4318215437551486
       0.4238102408932674
       0.4605423823766467
       0.4518846546528120
       0.4441742477875800
       0.4525219605291823
       0.4144550983571281
       0.4448855909774122
       0.4493997332961426
       0.4309663022377544
       0.4482361742232021
       0.4654796825830862
       0.4503527221795980
       0.4598685294374373
       0.4590076365249866
       0.3849683558430519
       0.3973855946516330
       0.4530734387976947
       0.4358735433416094
       0.4196497475027038
       0.3409778431831688
       0.4415696006345110
       0.4375019784497661
       0.3455770513024116
       0.4068513625387996
       0.4409476078703247
       0.3024704529443281
       0.4600504526344475
       0.4320303488132785
       0.3909189698288457
       0.4824227897353718
       0.4486313287673226
       0.4325287456594648
       0.4422121174805261
       0.4172012340957021
       0.4443124918902352
       0.4474245796232166
       0.3315553710998693
       0.4630742396933516
       0.4413019845103028
       0.4247457950061945
       0.4575477026207676
       0.3934034380368961
       0.3566093351806108
       0.4602127462507053
       0.4495723934424919
       0.5142847584126202
       0.4742555834929113
       0.4204966480311258
       0.4651420298299355
       0.3843132031132370
       0.4682868003700186
       0.3137220469146207
       0.4469568439478651
       0.4347691001827529
       0.3844085386889159
       0.4194305604546238
       0.4414671988678283
       0.4524021085126015
       0.4430647757332596
       0.4521840655463130
       0.3025767353821308
       0.4766668520388532
       0.4229548537280133
       0.4434334353921404
       0.3768332531845806
       0.4390513898139077
       0.4413800273095445
       0.4346094933780661
       0.4603964969527123
       0.4333028397029356
       0.3138178686810487
       0.4574404552257602
       0.4023132683298144
       0.4457764254029617
       0.4439476634390458
       0.4329552925283118
       0.4031842748060376
       0.4555477456276011
       0.4457059288121346
       0.4381521966059075
       0.3527496798015162
       0.4523407653140653
       0.3493621829916425
       0.4536584987283532
       0.3624190737988078
       0.4325005189049250
       0.4361374116479935
       0.4518714868011923
       0.4469590742412305
       0.4172656110029232
       0.3948620378827769
       0.3276695227278588
       0.3890224002122252
       0.4677833018848181
       0.4751797596526820
       0.3948862704521062
       0.4565107676606859
       0.4574963754172564
       0.4292814750947396
       0.3354440334057970
       0.3321907227925055
       0.4515296624202618
       0.4642492925083726
       0.4666601267529710
       0.4615880180498594
       0.4439960744461469
       0.3302729888122196
       0.4341718262974869
       0.3099630727590977
       0.4489407693400723
       0.4515685046195319
       0.3342070127211236
       0.3984613207070631
       0.4438565738954934
       0.4443182652990532
       0.4588590313338382
       0.4458938052964003
       0.4446557002861935
       0.4671779536272316
       0.4443569165420328
       0.3328022008198357
       0.4252500423796997
       0.3629766295685025
       0.4441303376024945
       0.4100745630229338
       0.4457908876270996
       0.3942299179514219
       0.4279202767108631
       0.4266966737641251
       0.3998296405836860
       0.3630746933018954
       0.4536726811117085
       0.3483642912497945
       0.4037223077339845
       0.4163756786577275
       0.4460278587032844
       0.4241318670659792
       0.4547026978912982
       0.4351789733541611
       0.4493664817617329
       0.4174134620308801
       0.3272500877757587
       0.4305152197799718
       0.4131186497221430
       0.4352174136485123
       0.4455779506266865
       0.4888420593332163
       0.4605212357056565
       0.4180931197121449
       0.4620246558401444
       0.4504441493098197
       0.4671873063340255
       0.3456659370876174
       0.4467953264017587
       0.3973038065616101
       0.3622476811208664
       0.4284993049630719
       0.5009843960169508
       0.4606876384983090
       0.4660378127045089
       0.3222141614420051
       0.4072773246292353
       0.4291391802418026
       0.4245728575848854
       0.4593861077488285
       0.4500098618740226
       0.4438028220881765
       0.4414551794610677
       0.3160518568992759
       0.4053451145428885
       0.4133633015473698
       0.4619419856297448
       0.4463824031125077
       0.4529340912936084
       0.4615176774380565
       0.3055230281676974
       0.4209098020038656
       0.4436273156345182
       0.3601816399336426
       0.4432298975529200
       0.3607716810319116
       0.4529602590022340
       0.5196505090104062
       0.4233344665404847
       0.3529208096611034
       0.4496170725634701
       0.4059563518384298
       0.4371447506355264
       0.4539117642687818
       0.4437670567142397
       0.4625313269237931
       0.4134174214218174
       0.3618464187521092
       0.4401447864888832
       0.3864307090616864
       0.3564225617680861
       0.3144832249525976
       0.4300471311456648
       0.4148317469639709
       0.4331540123766635
       0.4203191942921150
       0.4281528440687269
       0.4060551016427341
       0.4438500966643116
       0.4348491839066524
       0.3260815548915076
       0.4607099585882918
       0.3284352311864039
       0.4369550193980255
       0.3437116988909619
       0.4153644673783005
       0.4320337597749174
       0.4328617425829375
       0.4427246046685831
       0.4611626741069111
       0.3727089709732734
       0.4227563998131430
       0.4096013745267911
       0.4124597635008402
       0.4068946524422828
       0.4379705038640107
       0.3612348127596763
       0.3222775489124440
       0.3418491141049952
       0.3214274866647822
       0.4601755903771953