# vtk DataFile Version 3.0
GASDIN data file
ASCII
DATASET UNSTRUCTURED_GRID
POINTS 20624 double
0.000000 0.000000 0.000000
0.000600 -0.003200 0.000000
0.000600 0.003200 0.000000
0.002400 -0.006600 0.000000
0.002400 0.006400 0.000000
0.005400 -0.009600 0.000000
0.005400 0.009500 0.000000
0.009600 -0.012700 0.000000
0.009600 0.012700 0.000000
0.015000 -0.015800 0.000000
0.015000 0.015800 0.000000
0.021500 -0.018800 0.000000
0.021500 0.018800 0.000000
0.029200 -0.021800 0.000000
0.029200 0.021600 0.000000
0.038100 -0.024700 0.000000
0.038100 0.024500 0.000000
0.048000 -0.027600 0.000000
0.048000 0.027300 0.000000
0.059000 -0.030400 0.000000
0.059000 0.030000 0.000000
0.071100 -0.033200 0.000000
0.071100 0.032800 0.000000
0.084300 -0.035800 0.000000
0.084300 0.035500 0.000000
0.098400 -0.038400 0.000000
0.098400 0.038200 0.000000
0.113500 -0.040900 0.000000
0.113500 0.040700 0.000000
0.129500 -0.043300 0.000000
0.129500 0.043200 0.000000
0.146500 -0.045600 0.000000
0.146500 0.045600 0.000000
0.164200 -0.047800 0.000000
0.164200 0.047800 0.000000
0.182800 -0.049800 0.000000
0.182800 0.049900 0.000000
0.202200 -0.051700 0.000000
0.202200 0.051900 0.000000
0.222200 -0.053400 0.000000
0.222200 0.053800 0.000000
0.243000 -0.055000 0.000000
0.243000 0.055600 0.000000
0.264300 -0.056400 0.000000
0.264300 0.057100 0.000000
0.286200 -0.057500 0.000000
0.286200 0.058500 0.000000
0.308700 -0.058400 0.000000
0.308700 0.059700 0.000000
0.331600 -0.059000 0.000000
0.331600 0.060700 0.000000
0.354900 -0.059200 0.000000
0.354900 0.061600 0.000000
0.378500 -0.058900 0.000000
0.378500 0.062200 0.000000
0.402500 -0.058200 0.000000
0.402500 0.062600 0.000000
0.426600 -0.056900 0.000000
0.426600 0.062900 0.000000
0.451000 -0.055200 0.000000
0.451000 0.062900 0.000000
0.475500 -0.053000 0.000000
0.475500 0.062600 0.000000
0.500000 -0.050400 0.000000
0.500000 0.062100 0.000000
0.524500 -0.047600 0.000000
0.524500 0.061400 0.000000
0.549000 -0.044500 0.000000
0.549000 0.060300 0.000000
0.573400 -0.041300 0.000000
0.573400 0.059000 0.000000
0.597500 -0.037900 0.000000
0.597500 0.057300 0.000000
0.621500 -0.034600 0.000000
0.621500 0.055500 0.000000
0.645100 -0.031100 0.000000
0.645100 0.053400 0.000000
0.668500 -0.027700 0.000000
0.668500 0.051100 0.000000
0.691300 -0.024400 0.000000
0.691300 0.048600 0.000000
0.713800 -0.021200 0.000000
0.713800 0.046100 0.000000
0.735700 -0.018100 0.000000
0.735700 0.043400 0.000000
0.757100 -0.015200 0.000000
0.757100 0.040800 0.000000
0.777800 -0.012600 0.000000
0.777800 0.038000 0.000000
0.797900 -0.010100 0.000000
0.797900 0.035100 0.000000
0.817200 -0.007900 0.000000
0.817200 0.032300 0.000000
0.835800 -0.005900 0.000000
0.835800 0.029500 0.000000
0.853600 -0.004200 0.000000
0.853600 0.026700 0.000000
0.870500 -0.002700 0.000000
0.870500 0.024000 0.000000
0.886500 -0.001500 0.000000
0.886500 0.021300 0.000000
0.901600 -0.000500 0.000000
0.901600 0.018700 0.000000
0.915700 0.000300 0.000000
0.915700 0.016300 0.000000
0.928900 0.000800 0.000000
0.928900 0.013900 0.000000
0.941000 0.001100 0.000000
0.941000 0.011700 0.000000
0.952000 0.001300 0.000000
0.952000 0.009600 0.000000
0.961900 0.001300 0.000000
0.961900 0.007800 0.000000
0.970800 0.001100 0.000000
0.970800 0.006100 0.000000
0.978500 0.000900 0.000000
0.978500 0.004600 0.000000
0.985000 0.000700 0.000000
0.985000 0.003300 0.000000
0.990400 0.000500 0.000000
0.990400 0.002200 0.000000
0.994600 0.000300 0.000000
0.994600 0.001300 0.000000
0.997600 0.000100 0.000000
0.997600 0.000700 0.000000
0.999400 0.000000 0.000000
0.999400 0.000300 0.000000
1.000000 0.000000 0.000000
-0.500000 -1.000000 0.000000
1.500000 -1.000000 0.000000
1.500000 1.000000 0.000000
-0.500000 1.000000 0.000000
1.500000 -1.000000 0.005000
1.500000 1.000000 0.005000
-0.500000 1.000000 0.005000
-0.500000 -1.000000 0.005000
1.000000 0.000000 0.005000
0.999400 0.000300 0.005000
0.997600 0.000700 0.005000
0.994600 0.001300 0.005000
0.990400 0.002200 0.005000
0.985000 0.003300 0.005000
0.978500 0.004600 0.005000
0.970800 0.006100 0.005000
0.961900 0.007800 0.005000
0.952000 0.009600 0.005000
0.941000 0.011700 0.005000
0.928900 0.013900 0.005000
0.915700 0.016300 0.005000
0.901600 0.018700 0.005000
0.886500 0.021300 0.005000
0.870500 0.024000 0.005000
0.853600 0.026700 0.005000
0.835800 0.029500 0.005000
0.817200 0.032300 0.005000
0.797900 0.035100 0.005000
0.777800 0.038000 0.005000
0.757100 0.040800 0.005000
0.735700 0.043400 0.005000
0.713800 0.046100 0.005000
0.691300 0.048600 0.005000
0.668500 0.051100 0.005000
0.645100 0.053400 0.005000
0.621500 0.055500 0.005000
0.597500 0.057300 0.005000
0.573400 0.059000 0.005000
0.549000 0.060300 0.005000
0.524500 0.061400 0.005000
0.500000 0.062100 0.005000
0.475500 0.062600 0.005000
0.451000 0.062900 0.005000
0.426600 0.062900 0.005000
0.402500 0.062600 0.005000
0.378500 0.062200 0.005000
0.354900 0.061600 0.005000
0.331600 0.060700 0.005000
0.308700 0.059700 0.005000
0.286200 0.058500 0.005000
0.264300 0.057100 0.005000
0.243000 0.055600 0.005000
0.222200 0.053800 0.005000
0.202200 0.051900 0.005000
0.182800 0.049900 0.005000
0.164200 0.047800 0.005000
0.146500 0.045600 0.005000
0.129500 0.043200 0.005000
0.113500 0.040700 0.005000
0.098400 0.038200 0.005000
0.084300 0.035500 0.005000
0.071100 0.032800 0.005000
0.059000 0.030000 0.005000
0.048000 0.027300 0.005000
0.038100 0.024500 0.005000
0.029200 0.021600 0.005000
0.021500 0.018800 0.005000
0.015000 0.015800 0.005000
0.009600 0.012700 0.005000
0.005400 0.009500 0.005000
0.002400 0.006400 0.005000
0.000600 0.003200 0.005000
0.000000 0.000000 0.005000
0.000600 -0.003200 0.005000
0.002400 -0.006600 0.005000
0.005400 -0.009600 0.005000
0.009600 -0.012700 0.005000
0.015000 -0.015800 0.005000
0.021500 -0.018800 0.005000
0.029200 -0.021800 0.005000
0.038100 -0.024700 0.005000
0.048000 -0.027600 0.005000
0.059000 -0.030400 0.005000
0.071100 -0.033200 0.005000
0.084300 -0.035800 0.005000
0.098400 -0.038400 0.005000
0.113500 -0.040900 0.005000
0.129500 -0.043300 0.005000
0.146500 -0.045600 0.005000
0.164200 -0.047800 0.005000
0.182800 -0.049800 0.005000
0.202200 -0.051700 0.005000
0.222200 -0.053400 0.005000
0.243000 -0.055000 0.005000
0.264300 -0.056400 0.005000
0.286200 -0.057500 0.005000
0.308700 -0.058400 0.005000
0.331600 -0.059000 0.005000
0.354900 -0.059200 0.005000
0.378500 -0.058900 0.005000
0.402500 -0.058200 0.005000
0.426600 -0.056900 0.005000
0.451000 -0.055200 0.005000
0.475500 -0.053000 0.005000
0.500000 -0.050400 0.005000
0.524500 -0.047600 0.005000
0.549000 -0.044500 0.005000
0.573400 -0.041300 0.005000
0.597500 -0.037900 0.005000
0.621500 -0.034600 0.005000
0.645100 -0.031100 0.005000
0.668500 -0.027700 0.005000
0.691300 -0.024400 0.005000
0.713800 -0.021200 0.005000
0.735700 -0.018100 0.005000
0.757100 -0.015200 0.005000
0.777800 -0.012600 0.005000
0.797900 -0.010100 0.005000
0.817200 -0.007900 0.005000
0.835800 -0.005900 0.005000
0.853600 -0.004200 0.005000
0.870500 -0.002700 0.005000
0.886500 -0.001500 0.005000
0.901600 -0.000500 0.005000
0.915700 0.000300 0.005000
0.928900 0.000800 0.005000
0.941000 0.001100 0.005000
0.952000 0.001300 0.005000
0.961900 0.001300 0.005000
0.970800 0.001100 0.005000
0.978500 0.000900 0.005000
0.985000 0.000700 0.005000
0.990400 0.000500 0.005000
0.994600 0.000300 0.005000
0.997600 0.000100 0.005000
0.999400 0.000000 0.005000
1.441176 1.000000 0.000000
1.382353 1.000000 0.000000
1.323529 1.000000 0.000000
1.264706 1.000000 0.000000
1.205882 1.000000 0.000000
1.147059 1.000000 0.000000
1.088235 1.000000 0.000000
1.029412 1.000000 0.000000
0.970588 1.000000 0.000000
0.911765 1.000000 0.000000
0.852941 1.000000 0.000000
0.794118 1.000000 0.000000
0.735294 1.000000 0.000000
0.676471 1.000000 0.000000
0.617647 1.000000 0.000000
0.558824 1.000000 0.000000
0.500000 1.000000 0.000000
0.441176 1.000000 0.000000
0.382353 1.000000 0.000000
0.323529 1.000000 0.000000
0.264706 1.000000 0.000000
0.205882 1.000000 0.000000
0.147059 1.000000 0.000000
0.088235 1.000000 0.000000
0.029412 1.000000 0.000000
-0.029412 1.000000 0.000000
-0.088235 1.000000 0.000000
-0.147059 1.000000 0.000000
-0.205882 1.000000 0.000000
-0.264706 1.000000 0.000000
-0.323529 1.000000 0.000000
-0.382353 1.000000 0.000000
-0.441176 1.000000 0.000000
-0.500000 0.941176 0.000000
-0.500000 0.882353 0.000000
-0.500000 0.823529 0.000000
-0.500000 0.764706 0.000000
-0.500000 0.705882 0.000000
-0.500000 0.647059 0.000000
-0.500000 0.588235 0.000000
-0.500000 0.529412 0.000000
-0.500000 0.470588 0.000000
-0.500000 0.411765 0.000000
-0.500000 0.352941 0.000000
-0.500000 0.294118 0.000000
-0.500000 0.235294 0.000000
-0.500000 0.176471 0.000000
-0.500000 0.117647 0.000000
-0.500000 0.058824 0.000000
-0.500000 0.000000 0.000000
-0.500000 -0.058824 0.000000
-0.500000 -0.117647 0.000000
-0.500000 -0.176471 0.000000
-0.500000 -0.235294 0.000000
-0.500000 -0.294118 0.000000
-0.500000 -0.352941 0.000000
-0.500000 -0.411765 0.000000
-0.500000 -0.470588 0.000000
-0.500000 -0.529412 0.000000
-0.500000 -0.588235 0.000000
-0.500000 -0.647059 0.000000
-0.500000 -0.705882 0.000000
-0.500000 -0.764706 0.000000
-0.500000 -0.823529 0.000000
-0.500000 -0.882353 0.000000
-0.500000 -0.941176 0.000000
-0.441176 -1.000000 0.000000
-0.382353 -1.000000 0.000000
-0.323529 -1.000000 0.000000
-0.264706 -1.000000 0.000000
-0.205882 -1.000000 0.000000
-0.147059 -1.000000 0.000000
-0.088235 -1.000000 0.000000
-0.029412 -1.000000 0.000000
0.029412 -1.000000 0.000000
0.088235 -1.000000 0.000000
0.147059 -1.000000 0.000000
0.205882 -1.000000 0.000000
0.264706 -1.000000 0.000000
0.323529 -1.000000 0.000000
0.382353 -1.000000 0.000000
0.441176 -1.000000 0.000000
0.500000 -1.000000 0.000000
0.558824 -1.000000 0.000000
0.617647 -1.000000 0.000000
0.676471 -1.000000 0.000000
0.735294 -1.000000 0.000000
0.794118 -1.000000 0.000000
0.852941 -1.000000 0.000000
0.911765 -1.000000 0.000000
0.970588 -1.000000 0.000000
1.029412 -1.000000 0.000000
1.088235 -1.000000 0.000000
1.147059 -1.000000 0.000000
1.205882 -1.000000 0.000000
[...]
CELL_DATA 11164
SCALARS Density double 1
LOOKUP_TABLE default
       0.3869856002645779
       0.4657303816255740
       0.4475165815517185
       0.4544686494000108
       0.4204623022784561
       0.4227316690716407
       0.3860274300434098
       0.3572406883184441
       0.4046164296395448
       0.3649063779461279
       0.3548993139410110
       0.4720046438689191
       0.4669013406177209
       0.4633221117855963
       0.4062866115533949
       0.3823666485071798
       0.4769977307885381
       0.4164895098889879
       0.4724390192573700
       0.4672364131602983
       0.4216006431053745
       0.3915944592360089
       0.4187147644399852
       0.4727538034582289
       0.3556917212188314
       0.4411968296635464
       0.4718290304791528
       0.3874309308214812
       0.4536212428669940
       0.4645607557391024
       0.3570552374020832
       0.4777481254485400
       0.3825712256384952
       0.4924914509701271
       0.3827936459038949
       0.4754889660150036
       0.4338895913135595
       0.4104494743775361
       0.4720445237127772
       0.4510106191365479
       0.4566887967772299
       0.4734783935534386
       0.3861202692049170
       0.4294036365861240
       0.3925844988181467
       0.4466249586970117
       0.4515415502594897
       0.4161293434504907
       0.4525867933895993
       0.4051264053030759
       0.4724940112518459
       0.3809398985270248
       0.4943869683088071
       0.3944698869231071
       0.4548956215886906
       0.4554150984039436
       0.3863028342909393
       0.4272521879468388
       0.4888537068755166
       0.4047738115709352
       0.4791756226881473
       0.3811905504270824
       0.4083580171948559
       0.4435693216191397
       0.3601191176448368
       0.3990191246319650
       0.4839134923252866
       0.4362990386194000
       0.4633267151598495
       0.4857780216512527
       0.5307434079878113
       0.4573573206854206
       0.4265924836193216
       0.3660098325520711
       0.4434181070241831
       0.3974156995720866
       0.3628925328147449
       0.4075943890070378
       0.3960880096689982
       0.4687165538302298
       0.4640466691967672
       0.4564837601254276
       0.4848304282927400
       0.4396326962030303
       0.4785913476957140
       0.5028967892585874
       0.4233742873244795
       0.4165037930747862
       0.4402690049252333
       0.4877154962388317
       0.3716857675359926
       0.4209208383722789
       0.3637640864067365
       0.4739542560596580
       0.4003057079622951
       0.4595541087846001
       0.3862006392688835
       0.4413737472284334
       0.4577407185114454
       0.3760881165368198
       0.4187666507575125
       0.4690771911217853
       0.4445536685403351
       0.3848445445819515
       0.4318506323944741
       0.4482375168293729
       0.4736878455272673
       0.4445349634883959
       0.4420052669497843
       0.3706830648119456
       0.5082709053439720
       0.4762874951534635
       0.4433030824987070
       0.4378774231779421
       0.3742105665835221
       0.3575844923804983
       0.3870722810481253
       0.3618799383307819
       0.4523543318982150
       0.4906374699290817
       0.3864464988182919
       0.3876601429603825
       0.4471063747802243
       0.3579270388320224
       0.4464867892458015
       0.4249500025959865
       0.3813312388009044
       0.3877303834199400
       0.3912154670186254
       0.4692782516253885
       0.4018430792529749
       0.4361542200881990
       0.4527171930938329
       0.4351367078705894
       0.5020317052955116
       0.4216703853447856
       0.4220078806143441
       0.4711077087633652
       0.4900627533797933
       0.4191044249183943
       0.4402157542118774
       0.4729207104762053
       0.4431251240560703
       0.4586710062412844
       0.4160528349966822
       0.3603701468057443
       0.4857471205769613
       0.3795222668650019
       0.4750230202742453
       0.4840381106669313
       0.3701038910249702
       0.4213628482163778
       0.3823696976536741
       0.4661106268614887
       0.4153494506992585
       0.4182582508664714
       0.4787532603384110
       0.4218811052479477
       0.4516466670754845
       0.4670865344404146
       0.3792652088027783
       0.3757210465470804
       0.4632846140081227
       0.4548963514381854
       0.3694004896019513
       0.4625928104813755
       0.4409856898640223
       0.4857131968812372
       0.4641170951060001
       0.4724711369164747
       0.3953640984093783
       0.3903373684169533
       0.4905834220386375
       0.4265400610032221
       0.4470605858668205
       0.4567129923019957
       0.4994452841777433
       0.4479453104103007
       0.4279193958344286
       0.4401163031233364
       0.4702814442458172
       0.3729405996157690
       0.4652594831904246
       0.4694626562769880
       0.4690781061054970
       0.3716033830185639
       0.4745030265068271
       0.4690800139727597
       0.4345254247123260
       0.3944200341345018
       0.4345909562840931
       0.4003291167110224
       0.4543907026650800
       0.4647091644553920
       0.4779686576211910
       0.4403492265852983
       0.4130427951150794
       0.4328910289200597
       0.3953223243312675
       0.4311531043231776
       0.4500369449818963
       0.3889602769687828
       0.3850759639107548
       0.4649753234243770
       0.3903520267120114
       0.4131661315273977
       0.3845658012483194
       0.4889882632550873
       0.4557468876274364
       0.4194526289294597
       0.3571951653425963
       0.4198842783146624
       0.4535012623597202
       0.4817616051673458
       0.4626080760318736
       0.4699610577051628
       0.3915515380447419
       0.3971250845784592
       0.4425569494661395
       0.3564478939056699
       0.4225868800883220
       0.3718782829797364
       0.4093203689989560
       0.3583867106194953
       0.4428666348008306
       0.4557475753125654
       0.4529892689966612
       0.3579392055960755
       0.3669689915352550
       0.4759527865383679
       0.4477927013902374
       0.4509720598036664
       0.4248682889960901
       0.4655822817489071
       0.4715608066451680
       0.4788806095293840
       0.4744971303664083
       0.4639716981638727
       0.4698135499012236
       0.4899333672298646
       0.4393520028273965
       0.4487205497911743
       0.3865005675332132
       0.4763184994648411
       0.4647239196697526
       0.3601472588047976
       0.3956483910113870
       0.3702190608553181
       0.4045673775837745
       0.4639161232525117
       0.3870455912407754
       0.4677424826530586
       0.4587690999525239
       0.3542692572479998
       0.4864319363640521
       0.4546982383407165
       0.4637387477275757
       0.4675315756069457
       0.4317413302118567
       0.4439122254621473
       0.4249689511396474
       0.3741151139219142
       0.4415228903171233
       0.4175859239023073
       0.4587783338602400
       0.4604266338149799
       0.4817823828702794
       0.4876186254934489
       0.4122385977420770
       0.4278926217911228
       0.3830422279985440
       0.4644913839358273
       0.4809468757985179
       0.4644328748163595
       0.4774184001717010
       0.4283356109045726
       0.4681437855717343
       0.4918350221837636
       0.4689786766269527
       0.3859022368687003
       0.4432880736052747
       0.3626217217885152
       0.4580247115271005
       0.4478560157457342
       0.4428693581972053
       0.4688615147393194
       0.4454225403986801
       0.3907917098889083
       0.4334236246482263
       0.4669724654954433
       0.3611421074646592
       0.4588729894418607
       0.4839054414147937
       0.4567157113138054
       0.4624243905955596
       0.4684589957578991
       0.4897775625822835
       0.4730047157243780
       0.4875624106775622
       0.3660309057824987
       0.4690645171149885
       0.3756725363585491
       0.4750730223152959
       0.4189826117278213
       0.4712055541207080
       0.4371696330159706
       0.4445362608545780
       0.3611845532090588
       0.4771990388900853
       0.3844042667197150
       0.4813917750398140
       0.4822383568420119
       0.4175893697159641
       0.3629945329383578
       0.3886874238113573
       0.4025763854201672
       0.4380248188550208
       0.3917945413503328
       0.4615585105741174
       0.4433378140111309
       0.4733485334727155
       0.4181620549948670
       0.3964905765591736
       0.4525736511875173
       0.4647691820054737
       0.4892135927712564
       0.4624592790004282
       0.4322639601116890
       0.3917505485343457
       0.4575869948143554
       0.3923897440780500
       0.3835374316696103
       0.3835148749185136
       0.4565656746308004
       0.4523077446723501
       0.4756960094180290
       0.4630712263045271
       0.4308070426336387
       0.4811441992364504
       0.4695816343575413
       0.4460861058337984
       0.4356024662864691
       0.4222506950876590
       0.4702128999803914
       0.4200276769250768
       0.4484058216541998
       0.4621182496183887
       0.4327012095565204
       0.3839209626227791
       0.4673026416085177
       0.4782801547784819
       0.4598170988332394
       0.3902531620030645
       0.4673383717699438
       0.3778111614290834
       0.4600590742143501
       0.4533713453559219
       0.4682520704960976
       0.4873226321090117
       0.4095444446695635
       0.4753762506101066
       0.4912595225092238
       0.4291427321892347
       0.3741886938665028
       0.4330626602988347
       0.4181224416546506
       0.4550892376166323
       0.4603345158164397
       0.4713211534099712
       0.4521312371848185
       0.4523738388994846
       0.4134521641465062
       0.4715299245298157
       0.4576930276514342
       0.4753782960882845
       0.4663920298338769
       0.4360738747127172
       0.5242043616455507
       0.4532702629875179
       0.4028921877733636
       0.3796735241946639
       0.4911768503022683
       0.3650772862625911
       0.4989737378991194
       0.4848832041394989
       0.4305412902889644
       0.4039409237582680
       0.4666653395361832
       0.3715740426372135
       0.4724349604596794
       0.4631310792620168
       0.4883397269638344
       0.4138108653949932
       0.4495719339598352
       0.4742858535683523
       0.4847337519941589
       0.3878776591841087
       0.4679768355313143
       0.3559863159110473
       0.4699172971101592
       0.4498001458301433
       0.4399853855919751
       0.4459036161390624
       0.3945422094285442
       0.4300501059594750
       0.4432245038239024
       0.4499147447985135
       0.4714459284734169
       0.4655172637853459
       0.4723768862610315
       0.3607617602666368
       0.5256291052072343
       0.4732311648828666
       0.4798318212039411
       0.4638095779419535
       0.4498177301178728
       0.4557904761072733
       0.4512649321021147
       0.4676800833519837
       0.4684412784045174
       0.4314019138933143
       0.4152595060218360
       0.4506732891385820
       0.3832737057800703
       0.4710076909162299
       0.4850185174841795
       0.4768816645243197
       0.4357966343714380
       0.4889553805441656
       0.4851348156650864
       0.4531480568750383
       0.3632577077101196
       0.4917151389700916
       0.4646084304115182
       0.3642550785691539
       0.3946846285648164
       0.3658490462394108
       0.4748282365938680
       0.3936623000864580
       0.4800042195558668
       0.3739164347526229
       0.4496215227200780
       0.3616908139381522
       0.3935270148975099
       0.3874287941037198
       0.3849745672689691
       0.4694650092660709
       0.4713675686860178
       0.4115354377299046
       0.4148993507112937
       0.4778785168125733
       0.4229429121321636
       0.4168005378689915
       0.4493113855449039
       0.4977742678212606
       0.4526781586284937
       0.3791823342905449
       0.4485627611354441
       0.4556725351508059
       0.3786339651676747
       0.4127876821082102
       0.4131241194786030
       0.4668584669899830
       0.4746920764503832
       0.4868421811227552
       0.4185227760714102
       0.4009076768923800
       0.4724507477553587
       0.3666919467044577
       0.3794887067501115
       0.4400401701659258
       0.3897544916642799
       0.3978993545888082
       0.4647168709873406
       0.4509414794454280
       0.4132017511033655
       0.3914611847370164
       0.4572469915593876
       0.3834098703303389
       0.4299323981269131
       0.3690759432609819
       0.4826895596369717
       0.4692830589239734
       0.4757307639834387
       0.4570035683432652
       0.4712074724174567
       0.3886269890986826
       0.4802837000610337
       0.4360522985510799
       0.4327395834509207
       0.4446011634460448
       0.4719868021012440
       0.4675555796325110
       0.4640484872136485
       0.4134022394805609
       0.4668985138468893
       0.4305606538121758
       0.4621456896728275
       0.4344500206141281
       0.4731360110100063
       0.4691989906182714
       0.4842944013235086
       0.3824230440085519
       0.4082111675639266
       0.4568797276245056
       0.4537174378844196
       0.3677413218144499
       0.4187276886324607
       0.4618358904024128
       0.5065435059097296
       0.4768851182174033
       0.4380619248454473
       0.4669252318810352
       0.4365163452809011
       0.4216201901983890
       0.4663853211196866
       0.4154150512739411
       0.4507443501140468
       0.4341143495017958
       0.3734152201316727
       0.3961432393510212
       0.3860488971312660
       0.4727885444782362
       0.5266169945435915
       0.4610893157286330
       0.4397796459125727
       0.4247593250054022
       0.4988749025533784
       0.4578990254025528
       0.4612876859632518
       0.4832590942469858
       0.3970720728112495
       0.4719448086063175
       0.4579792461776557
       0.4365431471118588
       0.4764011072168663
       0.4597535922790377
       0.4751958497060860
       0.4347452582282977
       0.4645662363190727
       0.4665419525227497
       0.4575098333742079
       0.4507569215805068
       0.4671273302022494
       0.4774157161268019
       0.4183595147682546
       0.4181339474621868
       0.4247107370442706
       0.5247403005747728
       0.4726471540746446
       0.4708830246390281
       0.4012651305967386
       0.4448019037545413
       0.4550542687386939
       0.4370095837546855
       0.4637465226134401
       0.3837521437472365
       0.4491356041905726
       0.4826494621625249
       0.4121509318526433
       0.4459489732848852
       0.4792421519903799
       0.4663284369366273
       0.3994002851530346
       0.3606927364376774
       0.4695396824036498
       0.4876159253458965
       0.3878758846926622
       0.4733972381684604
       0.4277493869538534
       0.4686377955662780
       0.3736895383433276
       0.4234536491436371
       0.4567317067308856
       0.3781367292056108
       0.4737236637923924
       0.4020432928876270
       0.4919070840338909
       0.4560643426342664
       0.4365545430197434
       0.4869941007401341
       0.4824422007254962
       0.4396598166038833
       0.3571012067166421
       0.3903312484905514
       0.3580953917240857
       0.3963791867884949
       0.4442255755831394
       0.3698012335731948
       0.4667816932556921
       0.4541698227633870
       0.4607562522782686
       0.4710879055830225
       0.4719387417916713
       0.3649969470906343
       0.3761652321748372
       0.3871486048703682
       0.4347519845854706
       0.4342878876969056
       0.3882121187538846
       0.4031667020336735
       0.4592784930240078
       0.4820956842339710
       0.3617674732427208
       0.4444823769935021
       0.4378489366681617
       0.4870798803515366
       0.3709359608868293
       0.4685126472845173
       0.5163248452886534
       0.4671709724080618
       0.4460180197600981
       0.4538045487009776
       0.4432459547731705
       0.4775361089768257
       0.4098657755587754
       0.3664421431160554
       0.3844268836432391
       0.4339137253929127
       0.4540760305434376
       0.4227349892287576
       0.3915521572313816
       0.4397899531116752
       0.3782693685345859
       0.5059962418531455
       0.4195612556723793
       0.4274296276358882
       0.4107176947328311
       0.4506330936804090
       0.4354472336244983
       0.4440258843985302
       0.4030638605185669
       0.3622945919141760
       0.4418778247860605
       0.4498617958880196
       0.4711197368326804
       0.4139226997198315
       0.4299675961730464
       0.4822399429451037
       0.4704666699758702
       0.4708013398083170
       0.3573074320382708
       0.3689007258793284
       0.4916359006934986
       0.4003370305223959
       0.3558628033994117
       0.5308089718829012
       0.4905640713414613
       0.4459044656498604
       0.4628180595483121
       0.3561056122918774
       0.4580422446171364
       0.4675150719356096
       0.4316214693075378
       0.4229127631683813
       0.4628485955628796
       0.4665423148784333
       0.4118540628914784
       0.3942781957392996
       0.3746861332309596
       0.4563092618570121
       0.3923032290240054
       0.4086337979469814
       0.4670625789332045
       0.4441704430378029
       0.3946306558031880
       0.3769321060361932
       0.5044069614458437
       0.3661920189003990
       0.4787195984646482
       0.4581182775825081
       0.4739972870205378
       0.4801673864034869
       0.4910770848348876
       0.4849428959673410
       0.3936134735221096
       0.3585421030589300
       0.4730805757477647
       0.4874907461830562
       0.4587109413088076
       0.3589765267463499
       0.4380211466387707
       0.4638954612690769
       0.4837824261189819
       0.3871120630602034
       0.4662956665991708
       0.4719427339985125
       0.4297838919883010
       0.4073030666511433
       0.4681020919874625
       0.4306934122060716
       0.4360555145628740
       0.4877555154342427
       0.4509047411349985
       0.4420197571725893
       0.4300888614028402
       0.4422634435256196
       0.4501624613202669
       0.3948310329099217
       0.5186882860499036
       0.3653447681384721
       0.4002724693722991
       0.4261419918151337
       0.3583191939053971
       0.4800082550920066
       0.4590618840648266
       0.4548256158257974
       0.4870563262756675
       0.4197617498604836
       0.4687267042348350
       0.4625112977450900
       0.4735134488657490
       0.4718662188815741
       0.4758944157229431
       0.4586111416234193
       0.4555909892532086
       0.4604362506136390
       0.4455417481493021
       0.4823053996625124
       0.4852461437839019
       0.3677149933672987
       0.4715638881444799
       0.4255984541600537
       0.4564015983109430
       0.4632772840433052
       0.3616692186975006
       0.4594175282211770
       0.4982487697007303
       0.4175076183618435
       0.3563207682153383
       0.4235923326381031
       0.4927145485695515
       0.3593761661336889
       0.4593586326692629
       0.4155391323485007
       0.4006784825229526
       0.3598204074516190
       0.4309139617845105
       0.4827355758098524
       0.3886233738316693
       0.4444084245685840
       0.4395734037526251
       0.3574014983730853
       0.4737524542040741
       0.4616106201426908
       0.4498572326419112
       0.4656243485500691
       0.4859228875699156
       0.4783157429955849
       0.4671824833501456
       0.4897729580852409
       0.4275288185094193
       0.4733170061697964
       0.4810143685432670
       0.4844911423507648
       0.4626906315312191
       0.4642282488140323
       0.4685154210973959
       0.4017106998536974
       0.3664566145947631
       0.4848404722544029
       0.4461553590218161
       0.3626014151305447
       0.4561305765080169
       0.4204093547358590
       0.4746693996229555